1770
 Atoms. Timestep: 100500
C 2.1889 0.586142 2.60826
C 3.09466 0.170564 1.59937
C 1.29239 -0.297043 3.26083
C 3.06652 -1.18958 1.20146
C 3.1669 -1.46243 -0.186369
C 3.22331 1.2392 0.676354
C 3.28103 0.922779 -0.704341
C 3.26863 -0.424521 -1.14641
C -0.436449 1.38302 3.18614
C 0.461755 2.31679 2.61016
C -0.0592558 0.0544616 3.50539
C 1.79058 1.91654 2.32123
C 2.38591 2.30458 1.09422
C -0.263902 3.09038 1.6689
C 0.322166 3.47693 0.437412
C 1.67667 3.13667 0.192132
C -2.1213 -0.85027 2.65677
C -2.52571 0.455762 2.2808
C -0.871329 -1.08629 3.28247
C -1.70676 1.57196 2.58496
C -1.61396 2.65659 1.67607
C -3.31798 0.394585 1.10655
C -3.17867 1.46986 0.193277
C -2.2989 2.55445 0.439074
C -0.482863 -2.9653 1.75794
C -1.76493 -2.73281 1.19837
C -0.0270573 -2.11789 2.79892
C -2.60952 -1.67065 1.60847
C -3.37716 -0.949782 0.65897
C -1.69069 -3.08448 -0.173478
C -2.3885 -2.27745 -1.10709
C -3.24602 -1.21371 -0.727763
C 2.13607 -2.09945 1.765
C 1.7318 -2.97481 0.725164
C 1.30972 -1.64566 2.82373
C 0.393852 -3.44241 0.750715
C -0.343262 -3.42076 -0.460391
C 2.33135 -2.56655 -0.493172
C 1.64226 -2.65988 -1.72852
C 0.272891 -3.02367 -1.67367
C -2.22478 -0.598081 -2.63161
C -1.77314 -1.90821 -2.33014
C -0.447999 -2.29448 -2.65336
C -1.31461 0.329947 -3.19745
C -2.2375 2.09076 -1.78157
C -3.17982 1.20496 -1.19975
C -3.13632 -0.139532 -1.64678
C -1.28003 1.67134 -2.73928
C 0.534351 3.02473 -1.80291
C -0.37513 3.4377 -0.796601
C -1.70634 2.95066 -0.786856
C 0.0736366 2.09235 -2.76618
C 2.16334 0.843972 -2.64086
C 2.59538 1.74469 -1.63439
C 1.79601 2.82633 -1.18647
C 0.873642 1.00729 -3.2062
C 0.457802 -1.3868 -3.25873
C 1.72945 -1.6023 -2.66929
C 2.55814 -0.491193 -2.37172
C 0.00660604 -0.0691389 -3.52243
O -8.95828 -1.29099 -1.38981
H -8.97066 -0.346566 -1.23444
H -9.75113 -1.46095 -1.89846
O -7.20735 -13.8161 1.84516
H -6.482 -13.3737 2.28612
H -6.86847 -14.0228 0.974165
O 6.36532 0.225657 -6.35477
H 5.65753 -0.276726 -5.95119
H 6.37782 -0.0668108 -7.26611
O -2.65655 -6.47869 -8.07364
H -2.59294 -6.60232 -7.12659
H -2.41759 -7.32872 -8.44321
O -2.70679 8.97594 14.0346
H -2.28475 8.11937 13.9682
H -2.46609 9.29528 14.9043
O -6.21769 -0.807798 -14.5619
H -5.86455 -0.10032 14.8987
H -6.66459 -0.361159 -13.8428
O 5.24722 13.9061 11.7709
H 5.76055 13.1759 12.1167
H 5.79752 14.2823 11.084
O 1.60879 9.53259 9.36492
H 2.11332 8.8474 8.92653
H 1.61643 10.2666 8.75055
O -6.71953 1.36018 1.26596
H -6.27978 0.584313 1.61365
H -6.92653 1.88535 2.039
O 4.93641 -6.01266 4.47183
H 5.39285 -6.61885 5.05528
H 5.12091 -6.34157 3.59205
O -7.51683 2.49494 -13.2185
H -7.27063 3.23561 -12.6644
H -6.95662 2.57604 -13.9904
O -4.92934 -9.16732 -8.42473
H -5.78692 -9.38894 -8.06187
H -4.96374 -8.22047 -8.56081
O 1.99987 2.8928 -6.36519
H 2.71027 2.84549 -7.00498
H 1.64566 2.00411 -6.33372
O 3.38246 13.6874 2.68445
H 2.55134 13.9989 2.32609
H 3.63968 12.97 2.10528
O -3.06158 -6.56009 12.987
H -2.81259 -6.64418 13.9074
H -2.39286 -7.05297 12.5115
O -13.5214 13.4986 1.50326
H -13.8072 13.6856 2.39746
H -13.1536 12.616 1.54849
O 1.94674 11.5473 7.49527
H 2.04745 11.5608 6.54347
H 1.14443 12.0431 7.65874
O -1.65556 -6.54496 6.63582
H -1.09282 -6.26506 7.35778
H -1.78036 -5.75565 6.1089
O 9.63232 1.15515 2.41689
H 10.2048 1.79414 2.84133
H 8.96676 1.68412 1.97705
O -2.97365 4.54809 -11.2919
H -3.64633 3.86712 -11.2894
H -2.90628 4.82234 -10.3773
O -7.92231 6.33595 13.8031
H -8.46285 6.98141 13.3477
H -8.54672 5.80902 14.3018
O -1.54833 10.267 -4.89761
H -2.13422 9.52318 -4.75744
H -0.673698 9.92004 -4.72197
O 1.86694 -0.526655 -10.5178
H 2.41486 -1.31006 -10.4698
H 1.04391 -0.832409 -10.8991
O 6.12353 10.0296 -4.23213
H 5.89475 10.5017 -5.03276
H 5.67066 9.19001 -4.31089
O -0.512025 1.31247 13.3549
H -0.887828 1.64838 12.5412
H -0.00305225 2.04405 13.7042
O 3.62235 10.4376 10.926
H 3.8399 11.2066 10.3991
H 2.94256 9.9876 10.4244
O 7.55043 6.30444 -3.90314
H 6.74897 6.39931 -4.41781
H 8.14885 6.95605 -4.26856
O -9.16781 9.23198 8.25865
H -10.025 9.01189 8.62327
H -9.35934 9.84296 7.54714
O 7.73998 2.98043 4.27601
H 8.04938 2.19813 4.73263
H 7.98425 2.837 3.36169
O -5.21122 7.06288 14.7883
H -4.90077 7.80046 14.2631
H -6.07145 6.85416 14.4241
O 2.44852 -0.710985 10.9172
H 2.7218 0.169194 10.6587
H 3.1189 -1.28771 10.5509
O -6.04821 5.05969 12.5423
H -6.81588 5.34365 13.0386
H -5.80127 5.82519 12.0234
O 2.96983 13.4455 -13.9305
H 3.67148 14.0893 -13.8334
H 2.17415 13.9193 -13.6884
O -0.646369 -1.84609 7.04322
H -0.623749 -1.17025 7.72068
H -0.930763 -2.63649 7.50214
O 6.11715 -8.67524 -0.371712
H 5.259 -8.95955 -0.686342
H 6.72642 -9.33102 -0.710804
O 10.7244 12.4636 -0.149677
H 10.5468 11.5934 0.207485
H 11.2413 12.9 0.527482
O -6.3327 -6.14546 -3.59448
H -6.74706 -5.83451 -4.39938
H -6.23707 -7.08917 -3.72289
O -2.33245 -5.50677 -4.74059
H -2.61383 -5.18797 -3.88303
H -3.00781 -5.19833 -5.34473
O -6.40563 -12.1866 -5.55984
H -5.97982 -12.5699 -6.32664
H -6.61418 -12.9357 -5.00161
O -10.4087 2.78546 10.0745
H -9.75442 3.20585 9.51655
H -11.0246 3.48542 10.2914
O -0.434038 12.421 10.1519
H -1.1252 11.7965 9.93156
H 0.0422786 12.0077 10.8719
O 1.84948 7.20479 -8.32153
H 2.78653 7.06526 -8.18479
H 1.76367 7.35176 -9.26348
O 9.64613 9.50225 8.72026
H 9.73962 8.60314 9.03505
H 8.8744 9.83733 9.17676
O 5.13837 -12.0762 -12.4644
H 5.78542 -12.0099 -11.7621
H 5.27441 -12.9485 -12.8344
O 6.05846 -11.5257 -10.038
H 5.10512 -11.6116 -10.0391
H 6.37116 -12.3269 -9.61792
O -6.80631 11.1021 -13.2845
H -7.54808 10.6384 -13.6731
H -6.30568 10.4207 -12.8359
O -3.27653 2.71841 9.20764
H -3.40318 2.49792 8.28483
H -3.99814 3.3126 9.41364
O -4.91284 -2.5819 -2.89938
H -4.39778 -2.26281 -3.64041
H -4.53097 -3.43456 -2.69111
O -8.45426 6.89738 7.01904
H -7.63565 6.61905 7.42969
H -8.7036 7.69014 7.494
O 6.84696 0.525463 10.2599
H 6.21049 1.22295 10.1029
H 7.60891 0.973958 10.6267
O 0.788021 -1.06721 -14.6722
H 0.42915 -0.907287 14.455
H 1.31664 -0.291666 -14.4842
O 6.65354 10.1876 -13.0208
H 6.91631 9.92081 -13.9017
H 5.75051 9.88147 -12.9367
O -0.867811 2.63669 -12.1302
H -1.16617 3.28143 -11.4887
H -1.2477 1.80963 -11.8338
O 7.51654 10.281 -10.1261
H 8.13324 11.0109 -10.07
H 7.21732 10.289 -11.0353
O -5.65922 1.79953 14.7291
H -4.74968 1.99457 14.9547
H -5.72439 2.0048 13.7964
O -2.3784 -11.186 9.09594
H -2.49148 -10.2391 9.01401
H -2.97545 -11.5562 8.44573
O -4.74404 -12.6893 -1.01679
H -4.92654 -12.5771 -1.9497
H -5.2013 -13.4957 -0.77814
O -6.12182 -11.6112 -12.6803
H -5.34287 -11.424 -12.1564
H -6.80045 -11.8153 -12.0368
O -12.6861 -2.768 0.77734
H -13.5128 -2.42914 1.12086
H -12.8742 -2.97751 -0.137501
O -0.716679 -4.62473 -7.99875
H -1.36927 -5.30748 -8.15434
H -1.05303 -3.86022 -8.46632
O -9.87889 11.9777 7.44815
H -8.96547 12.0391 7.72766
H -10.3553 12.5391 8.05978
O 5.87437 9.53846 12.6931
H 5.22066 9.87943 12.0826
H 6.48079 9.04257 12.143
O -1.67254 0.481841 -10.4766
H -1.68821 -0.451546 -10.265
H -1.70622 0.921162 -9.62688
O -6.26858 -1.1633 -9.55492
H -5.83921 -0.699448 -8.8361
H -6.38555 -0.498517 -10.2336
O -6.17688 14.8182 -0.353165
H -5.71615 14.4968 0.421892
H -7.0319 14.3892 -0.319125
O -9.50688 10.9149 1.04275
H -9.5378 11.6796 1.61771
H -8.85464 11.1398 0.379233
O -4.57206 -4.15754 -6.2764
H -5.48928 -4.28634 -6.03484
H -4.59323 -3.99054 -7.21868
O 3.7749 -8.4194 14.8491
H 4.02241 -9.28914 14.5353
H 3.65009 -7.90338 14.0526
O -9.92749 -3.8206 3.36364
H -9.0299 -3.91581 3.68221
H -9.83211 -3.6332 2.42982
O -9.07906 -13.6044 -3.77629
H -9.29837 -12.9418 -3.1212
H -8.23579 -13.9552 -3.48983
O -6.39312 8.54022 -11.9883
H -6.08418 9.01267 -11.2153
H -5.62581 8.05907 -12.2981
O -1.02621 12.3155 -14.9995
H -0.618299 12.7405 -14.245
H -0.290261 12.0252 14.4617
O 14.2951 2.55453 -1.30591
H 13.5541 3.05654 -1.64509
H 13.9892 2.21296 -0.465707
O -1.62296 12.4533 -6.67608
H -1.33438 11.6822 -6.18788
H -1.95322 13.0518 -6.00605
O -6.00612 14.9554 7.92041
H -6.22182 -14.2408 7.44755
H -5.80655 -14.7535 8.81014
O -0.352473 -9.06791 -7.42233
H -0.826744 -9.33213 -8.21067
H 0.061638 -8.2378 -7.65829
O -5.35525 -12.8862 13.4845
H -5.30824 -12.5956 12.5737
H -5.97281 -13.6174 13.4715
O 5.39176 10.8676 -1.63477
H 5.71362 11.7669 -1.57136
H 5.61198 10.5962 -2.52587
O -2.29778 10.8155 -9.70949
H -1.79977 10.1561 -10.1926
H -1.76042 11.0065 -8.94072
O 6.65829 12.3618 13.5344
H 6.32829 11.5062 13.8087
H 7.15597 12.6798 14.2877
O -5.96999 11.7916 14.2821
H -6.24236 11.7031 -14.8046
H -6.50547 11.1545 13.8092
O -1.91409 -12.1477 -3.66836
H -1.53664 -12.9819 -3.38925
H -2.09797 -11.6824 -2.85229
O -7.43318 -5.954 -7.80425
H -7.5568 -6.84617 -7.48025
H -6.71484 -6.02436 -8.43295
O 11.0571 -13.5117 -3.3096
H 10.8235 -13.8518 -4.17333
H 11.0837 -14.2851 -2.74632
O -10.2531 -3.63078 -5.31593
H -9.45624 -3.149 -5.53763
H -10.3698 -4.24721 -6.03885
O -4.74887 -4.82433 -11.3982
H -3.82198 -4.95468 -11.5985
H -5.21253 -5.26342 -12.1113
O -4.93735 -8.63611 -3.45662
H -4.93015 -9.59206 -3.40812
H -4.01716 -8.38484 -3.37701
O -1.42673 -5.97649 -1.25108
H -0.764888 -5.47632 -0.773558
H -1.24144 -6.88976 -1.03236
O 2.24436 7.53452 -11.0904
H 2.89402 6.94846 -11.4786
H 1.55098 7.59325 -11.7477
O 9.25179 -10.6542 -6.99255
H 8.34708 -10.6478 -7.30511
H 9.50912 -11.5757 -7.0214
O -6.44221 -14.404 -3.83596
H -5.59453 -14.5214 -3.40713
H -6.65214 14.733 -4.19287
O 5.79296 -3.67221 -4.90335
H 5.46283 -3.58198 -4.00942
H 6.56273 -4.23489 -4.81924
O -0.130683 -7.17014 -4.41451
H 0.313588 -7.15962 -5.2623
H -0.837407 -6.53107 -4.50597
O 8.88284 10.3121 -2.25209
H 9.20975 11.0537 -2.76143
H 7.93753 10.3158 -2.40249
O -1.99433 -12.4754 -10.8328
H -2.24853 -13.269 -11.3039
H -1.11697 -12.2739 -11.1581
O -2.92725 -8.53175 -5.90497
H -3.84235 -8.7527 -6.07822
H -2.42624 -9.19625 -6.37789
O -1.55934 -11.4272 4.71331
H -1.48936 -11.3407 3.76259
H -1.64345 -10.528 5.03049
O -2.24605 -14.6648 -12.4576
H -2.4418 14.5024 -12.0283
H -2.80696 -14.657 -13.2332
O 3.10492 -8.81129 6.87697
H 2.37606 -8.32078 6.49698
H 3.07829 -8.5968 7.80945
O -5.44464 0.0228164 -7.24428
H -6.17643 0.235997 -6.66525
H -4.8253 0.742539 -7.12324
O -4.78267 -8.19851 -0.645723
H -4.7588 -8.29795 -1.59744
H -3.86601 -8.25341 -0.375634
O -11.0635 -2.93907 -2.53579
H -11.9752 -3.06395 -2.27236
H -11.06 -3.11117 -3.47738
O 3.0423 13.1404 -3.99032
H 2.91676 12.6931 -4.82721
H 2.45151 13.8925 -4.02921
O -3.61102 6.54428 -6.61554
H -4.3281 6.66814 -7.23738
H -3.5903 7.35582 -6.10838
O 4.14261 7.95479 -4.00587
H 3.74886 8.65588 -3.48658
H 3.92939 7.15335 -3.52788
O 6.2761 -0.118441 1.73467
H 6.06051 -0.274752 0.815255
H 5.49618 0.302947 2.09576
O -3.67642 2.17921 -7.53441
H -3.78758 2.81275 -6.82554
H -2.79615 2.34732 -7.87069
O -4.00675 3.89704 -5.36757
H -3.84589 4.82868 -5.51723
H -3.82983 3.76964 -4.43553
O 0.598514 7.00115 -2.62341
H 0.504677 7.07792 -1.67392
H 1.35952 6.43325 -2.74422
O 14.2836 0.803902 3.05207
H 14.923 1.23389 3.62004
H 14.8128 0.339073 2.40387
O 3.23279 -12.5689 4.61025
H 2.47407 -12.587 5.19355
H 2.86446 -12.6807 3.73385
O -5.26724 0.318021 4.22229
H -5.47937 -0.0915109 5.06105
H -4.96402 -0.404392 3.67237
O 6.77462 10.6145 9.93809
H 6.08353 11.0866 9.47359
H 6.45482 9.71402 9.99323
O 3.58354 11.1648 -10.0966
H 2.64609 11.191 -9.90495
H 3.63378 11.1848 -11.0523
O -1.76596 6.39295 -8.70508
H -0.940317 5.9472 -8.51573
H -2.1885 6.48823 -7.85149
O 3.57009 3.99502 -4.49161
H 4.0513 3.38363 -3.93406
H 2.90933 3.45512 -4.92536
O -6.85537 -0.475604 -2.87284
H -6.21715 -1.18884 -2.88702
H -7.65922 -0.879331 -2.54563
O -7.37883 -5.52264 1.88368
H -6.50591 -5.57297 1.49418
H -7.94686 -5.24591 1.16466
O -4.8961 2.82655 -9.77938
H -4.47217 2.55797 -8.96429
H -5.60212 3.41021 -9.50169
O 0.499828 4.794 -7.92224
H 1.0868 5.55 -7.93516
H 0.952408 4.14802 -7.37993
O -0.945342 -14.8891 11.3931
H -0.161209 -14.5473 11.8227
H -0.617285 14.4431 10.7909
O 7.40846 12.8848 -13.6089
H 7.05147 12.094 -13.2047
H 8.13173 13.1412 -13.0367
O -9.34705 -3.62244 9.65978
H -9.74399 -2.97223 9.08022
H -9.68587 -3.40789 10.5289
O -8.73513 10.4161 14.8511
H -9.65661 10.4043 -14.8901
H -8.69675 9.85771 14.0746
O -8.95808 -5.84598 -2.69456
H -9.20579 -5.25399 -3.40479
H -8.08687 -6.15999 -2.93672
O -2.16824 6.65564 -3.10419
H -1.21182 6.65291 -3.06575
H -2.44534 6.57176 -2.19182
O 1.55172 9.48576 -6.81525
H 1.41459 9.26951 -5.89293
H 2.02405 8.73286 -7.17062
O 11.3522 -7.10057 1.64592
H 11.9049 -6.3516 1.42273
H 11.2318 -7.03613 2.59334
O -12.0474 2.72914 2.63752
H -12.6194 2.38607 3.32403
H -12.1911 2.14633 1.89192
O -9.80576 -2.54304 0.929974
H -9.35569 -2.08331 0.22123
H -10.7364 -2.42247 0.741319
O -7.61758 0.580363 -5.528
H -7.30877 0.329307 -4.65746
H -7.54369 1.53459 -5.5429
O -3.31347 -14.3614 4.81788
H -3.44702 -13.6785 5.47518
H -3.96519 14.9705 5.03015
O -9.61958 1.00506 0.0458762
H -9.1745 0.82838 0.874681
H -10.5403 0.811293 0.221848
O 5.61308 -0.630554 -9.0487
H 4.98498 -1.27696 -8.72642
H 5.79012 -0.897003 -9.95087
O -6.99486 3.40222 -5.54282
H -7.24131 3.67267 -6.42733
H -6.07214 3.64495 -5.46599
O -0.556022 8.39681 -10.4131
H -0.43837 7.97368 -11.2636
H -0.88277 7.70141 -9.8422
O 5.398 9.76547 -8.53013
H 4.78313 10.0803 -9.19274
H 6.22648 9.66655 -8.99924
O -9.36331 9.18741 -6.31642
H -9.52462 8.96364 -5.39983
H -8.41946 9.07425 -6.42855
O -6.23236 0.915712 -11.2853
H -6.79641 1.57602 -11.6879
H -5.6698 1.41124 -10.6901
O 14.4531 9.40054 0.106303
H 14.8267 10.267 0.267446
H -14.8592 8.78967 0.371211
O -4.13029 -1.5192 -5.45769
H -4.23524 -2.4497 -5.65619
H -4.79201 -1.08316 -5.99456
O -2.68372 -8.34471 8.61895
H -3.53997 -7.9265 8.7093
H -2.43945 -8.19649 7.70538
O 11.6479 9.18682 3.83148
H 12.5113 8.79766 3.96996
H 11.3956 9.52332 4.69134
O -5.89969 10.6455 7.10895
H -5.94249 9.91784 7.72938
H -6.50597 10.4007 6.40984
O -3.12031 13.0239 -11.1944
H -2.92933 12.1478 -10.8594
H -4.07615 13.0678 -11.2203
O -6.5308 9.12164 -6.71486
H -6.59791 9.8864 -7.28658
H -5.77061 9.3015 -6.16169
O 5.21736 2.89667 10.4748
H 4.82833 2.6214 9.6447
H 4.57732 2.63712 11.1376
O -11.1002 14.8727 1.38155
H -11.9659 14.5111 1.57131
H -11.0456 -14.339 1.92174
O -6.69591 -1.64675 2.20236
H -7.25515 -2.31724 2.59469
H -6.43778 -2.01411 1.35699
O 1.97384 14.8647 5.66698
H 2.55589 -14.785 6.34135
H 2.14889 13.9237 5.66399
O -6.92117 -11.8598 -9.87909
H -6.49033 -12.3955 -9.21306
H -7.40427 -11.2004 -9.38108
O -5.93472 13.1184 -11.2431
H -6.09635 13.9979 -11.5846
H -5.98813 12.5492 -12.0108
O 4.92856 -9.14666 -12.6354
H 4.4853 -8.88807 -13.4435
H 5.14403 -10.0703 -12.7649
O -1.95699 -2.81223 -9.79362
H -2.82457 -2.72352 -9.39907
H -2.12642 -2.8794 -10.7333
O 0.718004 10.5625 -9.23862
H 0.327036 9.83005 -9.71499
H 0.588226 10.345 -8.31553
O -2.03438 -5.08603 -12.0178
H -1.85336 -4.89993 -12.9391
H -1.19786 -4.94271 -11.5752
O -12.837 6.66043 -1.67222
H -11.914 6.88526 -1.78952
H -12.8651 5.70774 -1.76069
O 1.3268 -6.59341 -6.81218
H 2.19675 -6.93998 -6.61392
H 1.49521 -5.77567 -7.28034
O 3.23074 -5.47009 1.54804
H 2.72795 -5.43386 0.734326
H 4.10856 -5.17926 1.3009
O -5.01449 -6.61474 -9.24738
H -5.06522 -5.93255 -9.91691
H -4.24098 -6.38751 -8.73136
O 7.84649 14.1237 -9.11898
H 7.45953 14.9667 -8.88257
H 7.60093 13.5377 -8.40307
O 2.37638 -4.00728 -7.42744
H 2.29294 -3.95393 -6.47537
H 3.31963 -3.97828 -7.58767
O 1.44808 -14.3873 12.8145
H 1.65037 14.6796 12.8829
H 1.3823 -14.089 13.7217
O 5.09465 -7.52531 1.87613
H 4.33108 -7.06892 1.52272
H 5.56291 -7.84303 1.1041
O 0.53646 -11.4515 -1.85989
H -0.370809 -11.626 -1.60959
H 0.99063 -12.2805 -1.70934
O -1.08929 11.8196 -1.89898
H -0.782081 11.1375 -2.49611
H -1.09842 11.3994 -1.03898
O -4.90431 13.756 1.76839
H -3.97329 13.5378 1.81149
H -5.29852 13.2697 2.49251
O -13.0591 4.89863 4.62977
H -13.3608 5.30353 5.44297
H -13.8136 4.94822 4.04274
O -9.34797 -5.11189 0.0432351
H -9.02107 -5.31488 -0.833215
H -9.29711 -4.15794 0.103373
O 0.315012 -8.09518 -12.2488
H 1.03689 -8.06402 -11.621
H 0.515314 -7.40343 -12.8794
O 1.78132 -6.31188 -14.1044
H 2.01124 -5.40643 -13.8958
H 2.62142 -6.76833 -14.1504
O 2.22232 -3.57444 -4.67463
H 1.27703 -3.44541 -4.75222
H 2.31418 -4.34386 -4.11267
O 2.13792 -5.8808 -3.28343
H 1.3496 -6.32259 -3.59901
H 2.8019 -6.56946 -3.25006
O 5.21094 -4.30665 0.0789434
H 4.92009 -3.83361 -0.70072
H 5.51845 -3.62269 0.673825
O 13.6631 12.3066 -2.39719
H 14.2599 11.6805 -2.80713
H 13.7688 12.1589 -1.45737
O -14.9053 -1.00889 1.06785
H -14.7117 -0.652791 0.200705
H 14.1834 -1.29625 1.01129
O -6.28734 -10.5529 0.452941
H -5.83712 -11.296 0.0513354
H -6.08825 -9.81307 -0.120851
O 10.0309 -1.07928 5.42336
H 10.4902 -1.39651 4.64578
H 10.7222 -0.724461 5.98234
O -0.376643 5.09739 -13.9294
H -1.00081 5.35841 -14.6065
H -0.859619 4.47611 -13.3844
O 2.84094 11.7526 -6.22075
H 2.36855 12.4635 -6.654
H 2.37411 10.9592 -6.48328
O -6.74146 14.7639 14.4067
H -6.09966 -14.9607 -14.9387
H -6.39058 13.9453 14.056
O -5.27098 11.6209 3.94487
H -6.13287 11.256 4.14543
H -5.14435 12.3099 4.59718
O 0.158836 -1.23765 12.2829
H 0.849966 -1.04831 11.6483
H -0.00324522 -0.400654 12.7181
O 1.57032 -3.5174 -13.7429
H 2.1013 -3.51892 -12.9465
H 1.38544 -2.59255 -13.9063
O 8.48701 -12.3356 -2.78017
H 9.41139 -12.5642 -2.87784
H 8.20715 -12.7997 -1.99115
O -13.7465 7.27288 0.976703
H -13.0067 7.70523 1.40344
H -13.4509 7.12199 0.078875
O 0.496502 13.9227 -0.911384
H 0.00524392 13.1978 -1.29786
H 1.40594 13.755 -1.15845
O 13.6147 8.71631 -2.85811
H 13.4468 9.21706 -2.05981
H 14.4401 9.06732 -3.19244
O -14.0789 10.6623 -3.633
H -13.7489 11.5401 -3.82461
H -13.4315 10.2876 -3.03572
O -5.81145 -3.0447 0.0175684
H -5.82302 -3.99814 0.101512
H -5.80354 -2.88698 -0.926516
O -9.18563 10.1721 -8.95372
H -9.21546 9.31342 -9.37567
H -9.54902 10.0233 -8.08078
O 12.8796 -5.63249 -0.425442
H 13.5583 -5.06787 -0.795349
H 12.1014 -5.44873 -0.951679
O -3.75336 12.3672 -2.3464
H -2.81066 12.2077 -2.30056
H -4.06605 12.2157 -1.45449
O 3.33433 -10.507 -5.02106
H 3.49729 -9.59838 -4.76804
H 2.38637 -10.6123 -4.94038
O 5.57291 13.499 -0.798214
H 6.41455 13.9184 -0.977024
H 4.93515 14.0257 -1.27995
O 8.09952 12.7686 -6.79238
H 8.7484 12.4942 -6.14437
H 7.2783 12.3822 -6.48813
O 6.36607 -12.1267 6.76121
H 5.83959 -11.4122 6.40266
H 6.00804 -12.2726 7.63686
O -6.22327 14.0073 -7.69301
H -6.17906 13.0836 -7.94013
H -6.4518 13.9964 -6.76355
O 13.6422 -2.55475 -1.84559
H 13.8668 -1.6893 -2.1873
H 13.1777 -2.98343 -2.56439
O -6.79399 11.391 -8.97363
H -7.68173 11.043 -9.05768
H -6.71183 12.0156 -9.69428
O 9.35337 -5.27483 0.518147
H 8.53422 -5.73639 0.338774
H 9.94006 -5.95046 0.85808
O -11.9565 10.4868 -1.34565
H -12.0766 10.5552 -0.398487
H -12.1038 11.3748 -1.67105
O 3.99765 -8.21054 -3.57545
H 4.17426 -7.85554 -4.44667
H 4.81298 -8.64387 -3.32307
O -8.01306 -2.15908 -6.42746
H -7.64176 -2.12841 -7.30919
H -8.02913 -1.2456 -6.14193
O 10.189 5.60892 4.62659
H 10.4928 5.98208 5.45406
H 9.76185 4.78925 4.87542
O 12.8563 12.2827 7.47696
H 12.3768 12.6836 8.2019
H 12.2593 11.6183 7.13269
O 7.05421 -13.3491 -8.20352
H 6.2287 -13.6905 -7.85976
H 7.69064 -13.5147 -7.50801
O -3.39369 11.1293 -13.9412
H -2.63491 11.7109 -13.9881
H -4.05619 11.5547 -14.4856
O 12.3996 14.8388 6.36253
H 12.6545 13.9899 6.72396
H 12.3758 -14.5755 7.11929
O -1.79746 13.9238 -8.96694
H -2.43375 13.6653 -9.6337
H -1.87794 13.2554 -8.28649
O 4.30029 2.36869 -7.84009
H 4.87185 1.69576 -8.20985
H 4.88749 2.9315 -7.33543
O -1.41177 10.5715 0.733982
H -0.623786 10.6205 1.27519
H -1.96224 11.2897 1.04594
O -5.53691 7.19775 -8.30145
H -5.98705 7.78975 -7.69884
H -5.05904 7.77714 -8.89489
O -6.26322 8.01655 -0.414624
H -5.47727 8.42043 -0.0466625
H -6.15087 7.08014 -0.251086
O 8.92133 -13.824 -6.38655
H 8.20415 -13.6725 -5.77098
H 9.01993 -14.7758 -6.41066
O -4.85015 -5.86258 0.686925
H -4.2593 -5.88478 1.43968
H -4.79924 -6.74345 0.315822
O -7.40561 -9.49598 -7.06497
H -6.93551 -9.98372 -6.3887
H -8.315 -9.78203 -6.97879
O -1.20866 -13.4261 -8.40239
H -1.27055 -14.3781 -8.48048
H -1.77782 -13.0909 -9.09519
O -6.5171 -12.5272 6.90819
H -6.54372 -11.7859 7.51314
H -7.08579 -12.2664 6.18377
O 6.61245 -9.24266 -3.61139
H 7.26243 -8.87639 -4.21106
H 7.12755 -9.72442 -2.96424
O -3.97877 9.40163 0.760412
H -4.16284 9.17132 1.67107
H -3.06079 9.67283 0.762298
O 2.55005 12.1006 4.76768
H 2.97946 12.5747 4.0556
H 1.77477 11.711 4.3634
O -6.71995 -2.27526 12.9765
H -6.63088 -3.11672 13.424
H -6.57074 -1.62264 13.6607
O -3.71636 -14.8327 -2.93426
H -3.19793 -14.7705 -3.73649
H -3.89746 14.2323 -2.83749
O -12.1028 4.69972 0.842637
H -12.5554 5.47578 1.17291
H -12.1728 4.06095 1.55208
O -12.0858 -5.53098 0.18677
H -12.5145 -4.7188 0.456595
H -11.1508 -5.3273 0.20795
O -10.4746 13.803 -3.06098
H -10.1236 13.0934 -3.59899
H -10.0307 14.5886 -3.38047
O 1.39292 -5.89151 -0.573922
H 1.47445 -6.83671 -0.701157
H 1.67427 -5.51213 -1.40648
O 5.3698 -3.68142 -7.71484
H 5.48642 -3.42866 -6.79901
H 5.71497 -4.57288 -7.76359
O 10.5727 -8.2596 -6.21117
H 10.4739 -7.67957 -6.96616
H 10.3585 -9.12981 -6.5474
O 1.97179 -1.18905 -7.83358
H 1.71848 -0.813706 -8.6769
H 2.1298 -2.11443 -8.02052
O 5.7098 -3.39306 5.07679
H 6.03867 -3.38371 4.17791
H 5.42144 -4.29489 5.21745
O 5.24462 2.26368 -3.24195
H 5.88949 2.33148 -3.94606
H 5.51624 2.92305 -2.60345
O 7.66198 2.96537 1.43368
H 7.58956 3.91779 1.37145
H 7.58572 2.65934 0.529926
O 8.12322 -1.79062 -4.43848
H 7.89159 -1.02138 -4.95891
H 7.37963 -2.38417 -4.54346
O 4.14329 -1.01906 -5.54539
H 3.46026 -0.695857 -6.13296
H 3.87198 -1.91135 -5.32986
O 14.2541 -8.33811 -1.03
H 13.8192 -7.5988 -0.605122
H 13.546 -8.95013 -1.23052
O 10.9091 10.275 6.25447
H 10.3112 10.7526 5.67957
H 10.4621 10.2528 7.10058
O -10.4002 8.17902 -1.53384
H -10.8297 9.02334 -1.39639
H -9.75975 8.11738 -0.825165
O -13.7165 -6.11088 -2.84324
H -14.246 -6.54729 -2.1759
H -12.8146 -6.34686 -2.62612
O 8.19188 -0.86724 -1.73539
H 8.23215 -1.31029 -2.58293
H 8.33029 -1.56383 -1.09364
O -4.50538 6.40874 -12.648
H -3.84054 5.89543 -12.1889
H -4.54138 6.02577 -13.5245
O -10.7785 -7.88745 -2.88828
H -11.1745 -8.35695 -2.15412
H -10.1422 -7.2991 -2.48173
O -1.59964 -1.30606 -6.07966
H -2.5384 -1.24597 -5.90264
H -1.32523 -2.11489 -5.64752
O -8.6983 5.96503 -10.2254
H -8.70199 6.70584 -10.8315
H -9.6031 5.9005 -9.91975
O 12.0082 7.93243 0.165871
H 12.8217 8.43675 0.172087
H 11.327 8.57325 0.369739
O -1.1333 2.34395 -8.38724
H -0.725152 3.19963 -8.25511
H -0.826484 1.81539 -7.65054
O 8.37903 0.986436 5.85267
H 8.87148 0.170727 5.76129
H 7.46943 0.737255 5.68905
O 4.38564 8.04486 0.334788
H 5.06983 8.1632 -0.32409
H 4.18464 7.10942 0.306699
O -10.4562 1.37988 -4.14531
H -9.95604 1.18512 -4.93784
H -9.86576 1.91406 -3.61406
O 1.35753 10.2256 1.08905
H 2.20139 10.5114 0.739145
H 1.18565 9.39235 0.650389
O 5.3419 -14.1917 5.50518
H 4.54014 -13.8087 5.14924
H 5.78628 -13.4613 5.93562
O 6.09999 -14.5345 9.7252
H 6.02586 14.9323 8.93372
H 7.03084 -14.3192 9.78317
O -12.4827 -8.01492 -0.47599
H -12.5272 -7.06534 -0.363927
H -13.3664 -8.26667 -0.743929
O -4.83443 -11.1917 -3.56939
H -5.40024 -11.3165 -4.33132
H -3.94662 -11.1915 -3.92721
O -10.2901 -8.49952 0.951547
H -11.0562 -8.44778 0.380062
H -10.4261 -7.80724 1.59847
O -6.64207 4.86691 -11.7821
H -7.3042 5.31819 -11.2585
H -6.00886 5.54843 -12.0075
O 3.18712 -12.389 -8.52678
H 3.3517 -13.1196 -7.93071
H 2.54075 -12.7262 -9.14704
O 1.03614 9.3235 -4.11547
H 0.934264 8.54421 -3.56907
H 1.69543 9.84948 -3.6628
O -7.13101 -4.49512 -5.75086
H -7.46291 -3.61185 -5.91181
H -7.21111 -4.93912 -6.59506
O -1.91863 14.1535 -4.61452
H -2.17509 14.7873 -5.28436
H -1.40585 14.6623 -3.98648
O 5.54751 -7.61319 -10.4315
H 5.43154 -8.07847 -11.2599
H 5.78655 -8.29567 -9.80431
O -2.04253 -14.8601 -0.581334
H -2.64793 -14.6865 -1.30216
H -1.45727 -14.1027 -0.571767
O -2.13564 -9.09982 -3.04031
H -1.8971 -8.78715 -2.16763
H -1.66311 -8.52215 -3.63968
O -5.24977 -13.171 -7.93544
H -5.66094 -14.0338 -7.88205
H -4.34799 -13.3168 -7.64951
O -6.53555 -14.212 -11.9475
H -6.60276 -13.826 -11.0742
H -6.28151 -13.4829 -12.5133
O 1.38665 -9.16023 -0.319614
H 1.46353 -9.52584 0.561664
H 1.15666 -9.9084 -0.870595
O 5.98529 -10.6075 -6.07848
H 5.05975 -10.8278 -6.18364
H 6.02452 -10.1234 -5.25364
O 7.84296 -5.60148 -3.63801
H 7.38613 -5.69216 -2.80176
H 8.76945 -5.5567 -3.40172
O 6.84869 -12.7862 -4.73909
H 7.49182 -12.5046 -4.08844
H 6.62288 -11.9869 -5.21484
O 8.56337 7.53539 3.30484
H 9.37203 7.48276 3.81428
H 8.56011 8.42479 2.951
O 4.64819 8.80181 -14.829
H 5.28103 9.03179 14.4907
H 3.80113 8.81578 14.7255
O 10.4168 -1.50455 2.52004
H 10.079 -0.616058 2.63277
H 10.9095 -1.47171 1.70007
O -1.40203 -8.60119 -0.147458
H -1.46475 -8.45657 0.796674
H -0.480904 -8.81431 -0.29693
O -5.03749 -3.66103 14.9649
H -5.21919 -2.74199 -14.8387
H -4.15192 -3.807 -14.7024
O 3.81302 11.1141 -13.0093
H 3.55091 11.985 -13.3076
H 3.54781 10.5278 -13.718
O -14.7799 0.0839167 -1.59779
H 14.7564 0.91125 -1.72714
H -13.905 0.241035 -1.95308
O -10.112 1.98963 5.9383
H -10.7369 1.39557 6.35413
H -10.3378 1.96287 5.00848
O 13.0464 1.73729 0.885804
H 12.1061 1.8828 0.989784
H 13.3768 1.65431 1.78035
O 7.88073 -7.48675 -5.65473
H 7.95486 -6.76299 -5.03271
H 8.7604 -7.8623 -5.69189
O 2.86331 3.02666 11.9897
H 2.28052 2.79724 11.2658
H 2.27994 3.14455 12.7394
O -0.437419 -3.62778 -5.26499
H -0.332578 -3.7577 -6.20751
H -1.14319 -4.22513 -5.01743
O -13.7157 -3.45889 -1.80146
H -13.615 -4.36095 -2.10543
H -14.6603 -3.3048 -1.81572
O 6.8186 5.41296 3.34811
H 7.1553 4.58598 3.69301
H 7.50777 6.04994 3.53661
O 7.50272 -2.00746 6.29818
H 8.39936 -2.19072 6.01769
H 6.96985 -2.65518 5.83695
O 12.3377 11.55 2.43849
H 11.6517 12.2062 2.56065
H 12.0688 10.816 2.991
O 6.27309 4.28522 -1.75462
H 6.74804 4.96903 -2.22691
H 6.95387 3.68113 -1.45824
O -9.19358 -0.333715 2.83483
H -8.25089 -0.493181 2.88095
H -9.55834 -1.14899 2.49058
O 3.99378 2.16317 8.25418
H 3.08686 2.44791 8.36669
H 3.92578 1.30599 7.83366
O 2.09513 -5.09001 5.68391
H 2.97524 -5.05235 5.30944
H 1.55758 -5.48025 4.99472
O 14.2212 12.1354 0.498646
H 14.9982 12.6663 0.673528
H 13.7277 12.1549 1.31862
O -8.93435 12.5241 12.7756
H -8.3657 12.9829 12.1572
H -8.44443 12.5246 13.5979
O 4.4401 4.21802 2.4038
H 5.34527 4.52818 2.43034
H 4.46016 3.3794 2.86484
O -4.17032 8.71294 -4.99489
H -4.71495 8.08507 -4.52014
H -4.29155 9.53855 -4.52594
O -9.84701 4.42563 3.4441
H -9.47529 4.03098 2.65524
H -10.6878 3.98322 3.56043
O -1.9386 5.87156 2.36782
H -1.03329 5.56068 2.36799
H -2.44437 5.13781 2.71718
O 11.3878 13.8707 -2.52005
H 12.2512 13.4978 -2.69862
H 11.1496 13.5235 -1.66047
O -3.78843 -5.02172 -2.50937
H -3.24369 -5.65668 -2.04426
H -4.60875 -5.48591 -2.67621
O 5.61494 11.4952 -6.38611
H 4.68508 11.5627 -6.16925
H 5.64518 10.8902 -7.1273
O -3.06881 8.26227 6.08271
H -3.47577 8.37964 5.22432
H -3.07801 9.13574 6.47412
O 14.237 -7.20247 -4.36274
H -14.9528 -6.83021 -4.01457
H 13.9428 -6.56801 -5.01631
O 4.80748 -14.572 -6.97958
H 4.80501 14.7886 -7.69189
H 4.29549 -14.9852 -6.28437
O 4.07303 -13.1491 -4.29986
H 4.9617 -13.2929 -4.62514
H 3.88084 -12.238 -4.52153
O 1.18789 -6.40704 3.28537
H 1.60315 -5.85089 2.62621
H 1.76828 -7.16449 3.36043
O 3.15797 14.9761 -1.61703
H 3.48116 14.8162 -2.50372
H 3.10198 -14.0707 -1.55025
O 4.45895 7.4222 -7.13528
H 4.56612 8.26316 -7.57973
H 4.52621 7.6327 -6.20394
O -3.98117 -10.4189 1.74945
H -4.00986 -9.74746 2.43104
H -4.84347 -10.3781 1.33592
O 12.376 -1.416 0.51349
H 12.7334 -0.534069 0.616844
H 12.3538 -1.55655 -0.433075
O 11.9822 3.99035 -2.09527
H 11.2035 3.99959 -2.65187
H 12.1536 4.91307 -1.90701
O -8.34137 -12.0568 4.82411
H -8.64412 -11.1742 4.61022
H -8.72013 -12.6121 4.14271
O -7.44696 -3.97255 4.29676
H -7.13651 -4.66693 3.71565
H -7.41249 -4.35874 5.17193
O 3.83666 11.6517 0.913622
H 4.4361 12.09 0.309678
H 4.33808 10.9107 1.25382
O -6.50722 7.23864 -3.10698
H -6.52911 6.28233 -3.14189
H -6.36413 7.44182 -2.1826
O 12.54 -4.01099 -3.85289
H 11.8691 -4.67565 -3.6967
H 12.3426 -3.67127 -4.72574
O -1.76609 12.1832 4.82097
H -1.24949 11.5119 4.37519
H -1.3281 12.3028 5.66363
O -13.6624 2.12916 4.58934
H -13.108 1.53787 5.09851
H -13.4866 2.99653 4.95403
O -10.5326 -1.64879 5.24365
H -10.2555 -1.30068 4.39615
H -10.6885 -2.57921 5.08158
O 7.9784 -10.1241 -1.56493
H 8.76505 -9.7096 -1.21052
H 8.29391 -10.9337 -1.96659
O -1.44828 -7.2303 2.56826
H -2.06147 -6.49839 2.63565
H -0.588578 -6.83792 2.72055
O -8.44593 -7.37022 10.6758
H -9.05431 -6.92708 10.0844
H -7.95026 -6.66126 11.0855
O -3.02579 2.35362 -14.5092
H -3.34176 1.81081 -13.7869
H -2.33994 1.8286 -14.9217
O 0.711172 -10.2004 2.05949
H 0.669546 -9.92954 2.97663
H 0.977132 -11.1193 2.09245
O 4.83432 -10.2757 2.26978
H 4.94133 -10.4176 3.21033
H 5.02647 -9.34646 2.14392
O 10.82 4.18008 0.69792
H 11.2788 4.85014 1.20462
H 11.1589 4.27805 -0.191889
O -3.55837 -5.61434 3.02233
H -3.9977 -4.86729 3.42871
H -3.97017 -6.38093 3.42108
O -2.44403 -13.4038 -5.99719
H -2.18602 -12.8897 -5.2321
H -1.7486 -13.2484 -6.63632
O 0.232748 -9.4282 11.8883
H -0.411164 -8.88364 11.4355
H -0.289918 -10.0823 12.3522
O 6.15258 -9.37551 -8.40849
H 6.05342 -9.69491 -7.51161
H 6.23562 -10.1686 -8.93789
O 13.8083 7.89057 7.15597
H 14.1727 8.66522 7.58415
H 13.8721 8.08126 6.22013
O 10.3659 -9.27631 0.0561475
H 11.011 -9.53259 -0.602948
H 10.8361 -8.67085 0.629402
O -12.9176 3.78269 -1.49238
H -12.6476 4.16759 -0.658603
H -13.8691 3.70397 -1.42342
O 8.14191 2.11781 -1.1653
H 8.17053 1.16159 -1.1977
H 8.90276 2.39806 -1.67402
O -6.15164 6.39133 8.55303
H -5.2925 6.18741 8.18355
H -6.43278 5.57709 8.97041
O 4.93242 5.54893 10.6506
H 5.14296 4.61606 10.6913
H 3.97951 5.57635 10.5644
O -11.8628 9.5243 3.58274
H -11.4522 8.77234 3.15584
H -11.1334 10.1053 3.79879
O -6.64948 4.34338 -2.83713
H -6.9871 4.15058 -3.71181
H -6.78825 3.5355 -2.34286
O 5.65339 -0.460007 -2.85251
H 6.60561 -0.551006 -2.81752
H 5.5048 0.48308 -2.92137
O 9.78242 12.3284 -4.46854
H 10.3262 11.5757 -4.70078
H 10.3045 12.8137 -3.82967
O 14.6269 5.88224 3.06406
H -14.9223 6.47717 2.46479
H 13.7216 5.86918 2.7535
O -6.83307 4.41919 -8.19269
H -7.60939 4.52135 -8.74326
H -6.46069 5.29925 -8.13723
O 14.2789 10.1788 8.7643
H 13.9259 10.3623 9.63492
H 13.9257 10.8751 8.21052
O -4.45676 -8.69471 -13.3591
H -5.03285 -9.25486 -13.8792
H -4.62635 -8.95184 -12.4528