# C60 Fullerene with bonding topology
# Generated with proper C-C bonds (1.3-1.5 Å)
# Atom style: full (compatible with TIP4P water)

60 atoms
90 bonds
0 angles
0 dihedrals
0 impropers

1 atom types
1 bond types

-4.0 4.0 xlo xhi
-4.0 4.0 ylo yhi
-4.0 4.0 zlo zhi

Masses

1 12.011  # Carbon

Atoms # full

   1 1 1 0.0      2.16650      0.59060      2.58740
   2 1 1 0.0      3.03780      0.17660      1.59180
   3 1 1 0.0      1.27860     -0.30980      3.16790
   4 1 1 0.0      3.01180     -1.14340      1.16540
   5 1 1 0.0      3.10340     -1.43350     -0.19300
   6 1 1 0.0      3.15030      1.21060      0.66820
   7 1 1 0.0      3.24280      0.91490     -0.68590
   8 1 1 0.0      3.21920     -0.40230     -1.12070
   9 1 1 0.0     -0.43930      1.35270      3.12710
  10 1 1 0.0      0.43630      2.26180      2.55420
  11 1 1 0.0     -0.02960      0.06330      3.43790
  12 1 1 0.0      1.74420      1.87900      2.28300
  13 1 1 0.0      2.35190      2.26760      1.09900
  14 1 1 0.0     -0.26330      3.02680      1.63260
  15 1 1 0.0      0.33740      3.40540      0.43730
  16 1 1 0.0      1.65160      3.02780      0.17070
  17 1 1 0.0     -2.09030     -0.82250      2.59550
  18 1 1 0.0     -2.51110      0.46640      2.28540
  19 1 1 0.0     -0.84490     -1.02520      3.17380
  20 1 1 0.0     -1.68740      1.55330      2.55120
  21 1 1 0.0     -1.58430      2.58580      1.63190
  22 1 1 0.0     -3.23140      0.40610      1.10070
  23 1 1 0.0     -3.12270      1.44100      0.17460
  24 1 1 0.0     -2.29470      2.52910      0.43990
  25 1 1 0.0     -0.49080     -2.91330      1.73650
  26 1 1 0.0     -1.74300     -2.71240      1.16370
  27 1 1 0.0     -0.03930     -2.06840      2.74530
  28 1 1 0.0     -2.54860     -1.66500      1.59420
  29 1 1 0.0     -3.26020     -0.91410      0.67010
  30 1 1 0.0     -1.65430     -3.00610     -0.18970
  31 1 1 0.0     -2.35420     -2.24390     -1.11700
  32 1 1 0.0     -3.16430     -1.19490     -0.68780
  33 1 1 0.0      2.13640     -2.05530      1.73580
  34 1 1 0.0      1.68950     -2.90090      0.72930
  35 1 1 0.0      1.27850     -1.63660      2.74350
  36 1 1 0.0      0.36780     -3.33270      0.73020
  37 1 1 0.0     -0.34400     -3.39040     -0.45940
  38 1 1 0.0      2.28890     -2.52500     -0.46400
  39 1 1 0.0      1.57900     -2.57180     -1.65800
  40 1 1 0.0      0.25600     -3.00540     -1.65310
  41 1 1 0.0     -2.18280     -0.57830     -2.59790
  42 1 1 0.0     -1.74800     -1.86940     -2.30830
  43 1 1 0.0     -0.43850     -2.24690     -2.58450
  44 1 1 0.0     -1.28150      0.31890     -3.16710
  45 1 1 0.0     -2.15260      2.05450     -1.73780
  46 1 1 0.0     -3.04850      1.15350     -1.18110
  47 1 1 0.0     -3.06560     -0.16290     -1.61070
  48 1 1 0.0     -1.26610      1.64070     -2.72710
  49 1 1 0.0      0.50390      2.93610     -1.74180
  50 1 1 0.0     -0.37880      3.35610     -0.75130
  51 1 1 0.0     -1.69430      2.91860     -0.74910
  52 1 1 0.0      0.05210      2.07300     -2.73550
  53 1 1 0.0      2.09760      0.83400     -2.60510
  54 1 1 0.0      2.55170      1.69230     -1.61070
  55 1 1 0.0      1.75890      2.74520     -1.18240
  56 1 1 0.0      0.84200      1.02060     -3.17860
  57 1 1 0.0      0.44610     -1.34950     -3.16610
  58 1 1 0.0      1.69830     -1.54850     -2.59080
  59 1 1 0.0      2.51840     -0.46230     -2.31710
  60 1 1 0.0      0.02180     -0.06450     -3.45850

Bonds

   1 1    1    2  # 1.386 Å
   2 1    1    3  # 1.391 Å
   3 1    1   12  # 1.390 Å
   4 1    2    4  # 1.387 Å
   5 1    2    6  # 1.391 Å
   6 1    3   11  # 1.387 Å
   7 1    3   35  # 1.393 Å
   8 1    4    5  # 1.392 Å
   9 1    4   33  # 1.387 Å
  10 1    5    8  # 1.392 Å
  11 1    5   38  # 1.389 Å
  12 1    6    7  # 1.389 Å
  13 1    6   13  # 1.393 Å
  14 1    7    8  # 1.387 Å
  15 1    7   54  # 1.392 Å
  16 1    8   59  # 1.388 Å
  17 1    9   10  # 1.386 Å
  18 1    9   11  # 1.388 Å
  19 1    9   20  # 1.389 Å
  20 1   10   12  # 1.389 Å
  21 1   10   14  # 1.387 Å
  22 1   11   19  # 1.385 Å
  23 1   12   13  # 1.386 Å
  24 1   13   16  # 1.389 Å
  25 1   14   15  # 1.390 Å
  26 1   14   21  # 1.393 Å
  27 1   15   16  # 1.393 Å
  28 1   15   50  # 1.389 Å
  29 1   16   55  # 1.386 Å
  30 1   17   18  # 1.391 Å
  31 1   17   19  # 1.388 Å
  32 1   17   28  # 1.387 Å
  33 1   18   20  # 1.389 Å
  34 1   18   22  # 1.388 Å
  35 1   19   27  # 1.386 Å
  36 1   20   21  # 1.386 Å
  37 1   21   24  # 1.389 Å
  38 1   22   23  # 1.393 Å
  39 1   22   29  # 1.389 Å
  40 1   23   24  # 1.393 Å
  41 1   23   46  # 1.388 Å
  42 1   24   51  # 1.388 Å
  43 1   25   26  # 1.392 Å
  44 1   25   27  # 1.391 Å
  45 1   25   36  # 1.388 Å
  46 1   26   28  # 1.390 Å
  47 1   26   30  # 1.388 Å
  48 1   27   35  # 1.387 Å
  49 1   28   29  # 1.387 Å
  50 1   29   32  # 1.390 Å
  51 1   30   31  # 1.389 Å
  52 1   30   37  # 1.392 Å
  53 1   31   32  # 1.393 Å
  54 1   31   42  # 1.388 Å
  55 1   32   47  # 1.388 Å
  56 1   33   34  # 1.388 Å
  57 1   33   35  # 1.388 Å
  58 1   34   36  # 1.390 Å
  59 1   34   38  # 1.387 Å
  60 1   36   37  # 1.387 Å
  61 1   37   40  # 1.390 Å
  62 1   38   39  # 1.390 Å
  63 1   39   40  # 1.392 Å
  64 1   39   58  # 1.390 Å
  65 1   40   43  # 1.388 Å
  66 1   41   42  # 1.393 Å
  67 1   41   44  # 1.393 Å
  68 1   41   47  # 1.388 Å
  69 1   42   43  # 1.391 Å
  70 1   43   57  # 1.388 Å
  71 1   44   48  # 1.393 Å
  72 1   44   60  # 1.389 Å
  73 1   45   46  # 1.387 Å
  74 1   45   48  # 1.391 Å
  75 1   45   51  # 1.391 Å
  76 1   46   47  # 1.385 Å
  77 1   48   52  # 1.387 Å
  78 1   49   50  # 1.392 Å
  79 1   49   52  # 1.392 Å
  80 1   49   55  # 1.387 Å
  81 1   50   51  # 1.386 Å
  82 1   52   56  # 1.388 Å
  83 1   53   54  # 1.390 Å
  84 1   53   56  # 1.393 Å
  85 1   53   59  # 1.393 Å
  86 1   54   55  # 1.386 Å
  87 1   56   60  # 1.389 Å
  88 1   57   58  # 1.392 Å
  89 1   57   60  # 1.384 Å
  90 1   58   59  # 1.388 Å
