LAMMPS data file via write_data, version 10 Sep 2025, timestep = 100500, units = real

1770 atoms
3 atom types
1230 bonds
2 bond types
570 angles
1 angle types

-15 15 xlo xhi
-15 15 ylo yhi
-15 15 zlo zhi

Masses

1 12.011
2 15.999
3 1.008

PairIJ Coeffs # lj/cut/tip4p/long/omp

1 1 0.07 3.4 12
1 2 0.05 3.2 12
1 3 0 0 12
2 2 0.1852 3.1589 12
2 3 0 0 12
3 3 0 0 12

Bond Coeffs # harmonic

1 938 1.42
2 0 0.9572

Angle Coeffs # harmonic

1 0 104.52

Atoms # full

531 158 3 0.5564 -7.4042671470513834 -11.200352772431561 -9.381079112249745 0 1 0
529 158 2 -1.1128 -6.921169740706707 -11.859771396676607 -9.87909106627723 0 1 0
530 158 3 0.5564 -6.490330727049404 -12.395503049101073 -9.213056628346534 0 1 0
234 59 3 0.5564 -6.800451375977118 -11.815259182907395 -12.036842182867474 0 1 0
94 13 2 -1.1128 -4.929341359591515 -9.167322697034457 -8.424734056996362 0 0 0
2035 660 2 -1.1128 -4.319393322749736 -10.753339295473493 -11.103014469227078 0 0 1
2037 660 3 0.5564 -4.632723621176413 -10.710309201259724 -10.19957408053723 0 0 1
2036 660 3 0.5564 -3.5744960493074456 -11.353584820339762 -11.070348394875323 0 0 1
797 247 3 0.5564 -1.2705520026773103 -14.378059152905282 -8.48047695817833 0 0 0
796 247 2 -1.1128 -1.2086567132617514 -13.426059535788234 -8.402389952483539 0 0 0
798 247 3 0.5564 -1.7778151903904922 -13.090930167597236 -9.095194995494516 0 0 0
1482 475 3 0.5564 -4.626347213093398 -8.951837108581316 -12.452772969606519 0 1 1
1042 329 2 -1.1128 -6.535553822654376 -14.21203374269729 -11.947539596850183 0 0 0
1043 329 3 0.5564 -6.602759815740197 -13.82596693395349 -11.07423103096501 0 0 0
344 96 3 0.5564 -2.248525324925876 -13.268977256677058 -11.303919098777628 0 0 0
343 96 2 -1.1128 -1.994333589819482 -12.475448533403329 -10.832823964953683 0 0 0
345 96 3 0.5564 -1.1169664973210132 -12.273880444206037 -11.158137909381951 0 0 0
233 59 3 0.5564 -5.342873017009847 -11.424030763773223 -12.156428766840468 0 1 0
232 59 2 -1.1128 -6.121816554631497 -11.611198050550215 -12.68030601463123 0 1 0
1044 329 3 0.5564 -6.28151422036597 -13.48294774574056 -12.51334000185676 0 0 0
1480 475 2 -1.1128 -4.45676311755394 -8.69471057584753 -13.359062026848385 0 1 1
2090 678 3 0.5564 -2.5802738713983815 -9.47937125668923 -13.132069718371165 0 0 1
2012 652 3 0.5564 -6.066612678979627 -10.91329790365039 -14.269931350530564 0 0 1
352 99 2 -1.1128 -2.2460499184094536 -14.664815929934052 -12.457628326998504 0 0 0
1987 644 2 -1.1128 -2.1554696212882183 -8.968561845899087 -9.547913578564117 0 1 1
354 99 3 0.5564 -2.8069594008493572 -14.657008033344974 -13.233227006933026 0 0 0
1988 644 3 0.5564 -2.2986802668353343 -9.116780336057303 -10.48266195777495 0 1 1
96 13 3 0.5564 -4.963740328068609 -8.22046888967687 -8.560809239525454 0 0 0
1989 644 3 0.5564 -3.018390017731901 -9.087476976079152 -9.15110097335189 0 1 1
1481 475 3 0.5564 -5.032845149977932 -9.254861239785502 -13.879248305457413 0 1 1
1040 328 3 0.5564 -5.660943581807771 -14.033756927199676 -7.882050245450432 0 0 0
2011 652 2 -1.1128 -5.746649500990484 -10.555361136232692 14.901976425900951 0 0 0
2089 678 2 -1.1128 -1.8429745895182261 -9.733343647338263 -12.576984171761373 0 0 1
2091 678 3 0.5564 -1.333882487591897 -8.929628745069255 -12.471624618154175 0 0 1
95 13 3 0.5564 -5.7869229688000425 -9.388939400080142 -8.06186810306365 0 0 0
2239 728 2 -1.1128 0.7167952665967771 -11.329772467611031 -12.18474143203696 0 1 1
2240 728 3 0.5564 0.11418991463967042 -10.586733741039353 -12.216254132546593 0 1 1
288 77 3 0.5564 0.06163804553440286 -8.23780480058586 -7.658288596731134 0 1 0
1353 432 3 0.5564 -1.7486027081458628 -13.24844774497916 -6.636320944243449 0 0 0
1509 484 3 0.5564 -4.67896472750429 -9.654274547385853 13.455779480507289 0 1 0
2013 652 3 0.5564 -5.56614396840221 -11.324675817093187 14.36178706604256 0 0 0
1556 500 3 0.5564 1.0586521490668663 -14.508249269234406 -13.75207398380303 0 0 1
287 77 3 0.5564 -0.8267437500858555 -9.332130819114406 -8.210669015051538 0 1 0
192 45 3 0.5564 5.274411320487287 -12.948461975905344 -12.834438257269735 0 1 0
191 45 3 0.5564 5.785416185240621 -12.009873102443994 -11.762140878360926 0 1 0
190 45 2 -1.1128 5.138365717952191 -12.076229681444325 -12.464391213137466 0 1 0
1995 646 3 0.5564 3.7269171401464187 -9.844363685550476 -11.521841099792127 0 1 1
1994 646 3 0.5564 3.359425854892117 -11.28235521362726 -11.820213421506697 0 1 1
2241 728 3 0.5564 1.4926645369349572 -10.990763081447147 -11.738274502348883 0 1 1
1993 646 2 -1.1128 3.2171763732194463 -10.580992286336672 -11.184534404323946 0 1 1
1650 531 3 0.5564 2.7120813653442113 -8.129226904528423 -9.3705691122427 0 0 0
1648 531 2 -1.1128 2.554414114624009 -7.349162304527329 -9.902427626632292 0 0 0
264 69 3 0.5564 3.650087815672163 -7.903376512424987 14.052649121859037 0 1 -1
262 69 2 -1.1128 3.774896866613609 -8.41939536440831 14.849128434694514 0 1 -1
193 46 2 -1.1128 6.05845621788903 -11.525657614560577 -10.03799650379699 0 1 0
536 160 3 0.5564 4.485304958348989 -8.888069243713089 -13.443457468814938 0 1 0
537 160 3 0.5564 5.1440334742066325 -10.070260563065133 -12.764931718109175 0 1 0
194 46 3 0.5564 5.1051231627945715 -11.61160939548031 -10.039116132399128 0 1 0
2206 717 2 -1.1128 1.0959202331882278 -13.315618745862803 -9.824642518330004 0 1 1
263 69 3 0.5564 4.022408657740661 -9.289144241435185 14.535268063075605 0 1 -1
1555 500 2 -1.1128 1.542869502782695 -13.971903178077502 -14.379846686993346 0 0 1
535 160 2 -1.1128 4.928557555180539 -9.146661523848513 -12.635441374706078 0 1 0
286 77 2 -1.1128 -0.35247273028696297 -9.067905015481703 -7.422325894820118 0 1 0
2208 717 3 0.5564 0.339755945328726 -13.209752601259092 -9.247371682569478 0 1 1
1814 586 3 0.5564 2.6706489152195014 -10.327163618432026 -8.48439814541659 0 0 0
1815 586 3 0.5564 1.4365353796793734 -9.626282759642557 -7.957495676951988 0 0 0
1359 434 3 0.5564 6.235622306352838 -10.168644762676921 -8.937889263468174 -1 1 0
195 46 3 0.5564 6.371162465862537 -12.326895447104171 -9.61791839915179 0 1 0
1032 325 3 0.5564 5.786547811372146 -8.295673188744768 -9.804307232873349 0 1 0
1030 325 2 -1.1128 5.547509467090783 -7.61319033414664 -10.431451321784897 0 1 0
1031 325 3 0.5564 5.431544337370086 -8.078474751957847 -11.259880177590118 0 1 0
587 177 3 0.5564 1.0368947053758417 -8.06402229593059 -11.621031709548971 0 0 0
1020 321 3 0.5564 2.540746684179078 -12.726194124885893 -9.14704113765461 0 1 0
1018 321 2 -1.1128 3.1871235606208423 -12.388987580853872 -8.526782683477595 0 1 0
1813 586 2 -1.1128 2.3348871161014486 -9.463348103979108 -8.244983604765453 0 0 0
763 236 2 -1.1128 7.054207670384491 -13.349058192166959 -8.203522473965226 -1 1 0
586 177 2 -1.1128 0.31501234769488445 -8.095184160454709 -12.248842842203048 0 0 0
2207 717 3 0.5564 0.7979031871261887 -12.987665477171314 -10.673090769402062 0 1 1
1536 493 3 0.5564 5.018657501289828 -14.481064673073009 -14.439231863909013 0 0 1
1534 493 2 -1.1128 5.180237498336136 -14.885862526073705 -13.587021128571283 0 0 1
764 236 3 0.5564 6.228701228194748 -13.690518375170921 -7.859755136594785 -1 1 0
1770 571 3 0.5564 1.1962842512127678 -10.825578175150513 -14.227629601945319 0 0 1
1357 434 2 -1.1128 6.152578460145589 -9.37550706630648 -8.408485639864658 -1 1 0
765 236 3 0.5564 7.690643453704942 -13.514738331366145 -7.508014399113743 -1 1 0
318 87 3 0.5564 -5.2125341156136535 -5.263422257916179 -12.111260085658783 0 0 0
2052 665 3 0.5564 -0.6484395419330649 -8.076859432753542 13.988134877846276 0 0 0
557 167 3 0.5564 -5.065218098581554 -5.932554369703988 -9.916912986362933 0 0 0
556 167 2 -1.1128 -5.014490026000815 -6.614743570717975 -9.24737850756423 0 0 0
316 87 2 -1.1128 -4.748871178696599 -4.824334775652274 -11.398202725475972 0 0 0
558 167 3 0.5564 -4.240981423758346 -6.3875071880368095 -8.731355281181777 0 0 0
309 84 3 0.5564 -6.714837813496228 -6.0243649895535665 -8.432949106081521 0 0 0
308 84 3 0.5564 -7.556798860096079 -6.8461745500081035 -7.480254938489545 0 0 0
307 84 2 -1.1128 -7.433184601334122 -5.953999137685481 -7.804252697151048 0 0 0
539 161 3 0.5564 -2.8245695074841706 -2.7235201092791064 -9.399073304167466 0 1 0
2120 688 3 0.5564 -4.724502561752069 -4.111107979143596 -9.91361619960107 0 0 1
2119 688 2 -1.1128 -4.743100473533241 -3.7988249854924234 -9.008980721212025 0 0 1
1530 491 3 0.5564 -5.016977593502474 -7.0538563497541436 -13.590267141833 0 0 1
1528 491 2 -1.1128 -5.560554002603691 -6.273484273191724 -13.698792342570764 0 0 1
1529 491 3 0.5564 -5.151115946398725 -5.794083577958307 -14.419047376603507 0 0 1
1826 590 3 0.5564 -1.9094428201595288 -3.3352547907374515 -14.055313977281925 0 0 1
538 161 2 -1.1128 -1.9569903060997411 -2.812230390183012 -9.79362211764408 0 1 0
540 161 3 0.5564 -2.126422077835917 -2.879397787036377 -10.733310069961595 0 1 0
317 87 3 0.5564 -3.8219801509107825 -4.954682220313246 -11.598488696878817 0 0 0
2121 688 3 0.5564 -5.15298584547461 -2.9354218546197055 -9.061524985862116 0 0 1
2107 684 2 -1.1128 -1.46183928055762 -1.8482194081840397 -12.81025663885981 0 0 1
755 233 3 0.5564 -7.641764310276704 -2.12841267928114 -7.309185965975174 0 1 0
250 65 2 -1.1128 -6.268584687124454 -1.1633010034106475 -9.554924888284026 0 0 0
2108 684 3 0.5564 -2.196834085702538 -1.2414392834925139 -12.898761902707028 0 0 1
544 163 2 -1.1128 -2.034376592192934 -5.0860273589011635 -12.017823165636312 0 1 0
240 61 3 0.5564 -1.053031777133648 -3.860217315977575 -8.466320619839983 0 1 0
545 163 3 0.5564 -1.8533578465139167 -4.899930871117446 -12.939144268989516 0 1 0
2109 684 3 0.5564 -0.7760618464343918 -1.477092367282742 -13.36541998320289 0 0 1
546 163 3 0.5564 -1.197857998997238 -4.942708255883682 -11.575184446773592 0 1 0
238 61 2 -1.1128 -0.7166789715326287 -4.6247266353294 -7.998747972569559 0 1 0
239 61 3 0.5564 -1.3692698742230336 -5.307476343150326 -8.154343045264715 0 1 0
251 65 3 0.5564 -5.839214034050862 -0.6994479440852471 -8.83609732608378 0 0 0
252 65 3 0.5564 -6.385545370087655 -0.4985173015396224 -10.23361091078888 0 0 0
211 52 2 -1.1128 0.7880211647095751 -1.067211530143525 -14.672153284079704 0 0 0
2050 665 2 -1.1128 -0.6920510326362437 -7.582499528585782 14.80663247967021 0 0 0
1079 341 3 0.5564 -5.2191916748139855 -2.7419866483422806 -14.838672192823633 0 0 0
78 7 3 0.5564 -6.664591935006617 -0.36115894830184997 -13.842824788807427 0 0 0
76 7 2 -1.1128 -6.217688043546365 -0.8077979109419418 -14.5618674978425 0 0 0
1649 531 3 0.5564 3.4272417536245934 -7.0586987155162415 -10.167068464867052 0 0 0
591 178 3 0.5564 2.6214220548589333 -6.768328818039976 -14.150361998864339 0 0 0
589 178 2 -1.1128 1.781318593928878 -6.311875629121099 -14.104441456996703 0 0 0
552 165 3 0.5564 1.4952093128403456 -5.775670590364431 -7.280338702954657 0 0 0
1571 505 3 0.5564 5.6567901752688865 -4.421954337430815 -10.258034961597751 0 0 0
1570 505 2 -1.1128 5.079340066245566 -4.692407367356515 -10.971924685995335 0 0 0
588 177 3 0.5564 0.5153141712980429 -7.403434076924115 -12.87939274336564 0 0 0
590 178 3 0.5564 2.0112410572862527 -5.406431452347949 -13.89578220147286 0 0 0
653 199 3 0.5564 2.1013001440614048 -3.5189228737395877 -12.946465650177055 0 0 0
652 199 2 -1.1128 1.5703183597689778 -3.5174041443016772 -13.742887880545092 0 0 0
1942 629 2 -1.1128 2.673196127783138 -3.196420391317768 -10.934733605715593 0 1 1
1944 629 3 0.5564 3.339489072783297 -3.8468336424371308 -11.156654243125471 0 1 1
654 199 3 0.5564 1.3854362810848078 -2.5925528865981176 -13.90629552890343 0 0 0
1943 629 3 0.5564 1.8630515210887753 -3.7000801707063933 -10.855834751006507 0 1 1
1524 489 3 0.5564 0.984581255984889 -5.94684911993171 -10.593063533527511 -1 0 0
1522 489 2 -1.1128 0.37212132316219393 -5.212879681957865 -10.543932541504578 -1 0 0
840 261 3 0.5564 2.1297958373127592 -2.1144267654862023 -8.020516642073495 0 0 0
127 24 2 -1.1128 1.8669375519616294 -0.5266554177718441 -10.517784980390639 0 0 0
128 24 3 0.5564 2.4148577398378377 -1.310055080684555 -10.46981261047273 0 0 0
839 261 3 0.5564 1.718478674425927 -0.8137055392104371 -8.67689975335442 0 0 0
479 141 3 0.5564 4.984976525988974 -1.2769623345539756 -8.726417152165638 0 0 0
480 141 3 0.5564 5.790117905246083 -0.8970026373864912 -9.950865308246202 0 0 0
838 261 2 -1.1128 1.9717915173073457 -1.1890494583832987 -7.833583399357674 0 0 0
1523 489 3 0.5564 0.05803915510263995 -5.222511368075997 -9.639779598995199 -1 0 0
562 169 2 -1.1128 2.376383940756005 -4.007284920724304 -7.4274360999225495 0 0 0
1572 505 3 0.5564 5.212889075976737 -5.637525579449875 -11.04367716029086 0 0 0
2184 709 3 0.5564 6.024642847190251 -6.926357056596066 -8.166639238024603 0 1 1
478 141 2 -1.1128 5.613084694503249 -0.6305540148523884 -9.048703320330553 0 0 0
2051 665 3 0.5564 0.1873899853742477 -7.220636179724226 14.915586303580744 0 0 0
2097 680 3 0.5564 0.6355126830571053 -4.025486138104038 14.533912780816406 0 0 0
956 300 3 0.5564 -8.701994010504537 6.705842321136321 -10.831520749724147 0 0 0
955 300 2 -1.1128 -8.6983016510099 5.965034382019999 -10.225366329099282 0 0 0
957 300 3 0.5564 -9.603103943996048 5.900501853777811 -9.919751345975378 0 0 0
1469 471 3 0.5564 -7.60938976149546 4.5213453593261015 -8.743259219452797 0 0 0
1796 580 3 0.5564 -9.493124314606822 4.241024910197321 -13.696894141334013 0 0 1
1795 580 2 -1.1128 -9.528011665913295 4.1837781140450465 -14.651743701619893 0 0 1
1797 580 3 0.5564 -8.892029847555927 3.5040710339859653 -14.874807400526235 0 0 1
248 64 3 0.5564 -1.6882083486853268 -0.45154565909887073 -10.265039408557287 0 0 0
1470 471 3 0.5564 -6.4606945027071685 5.299245117627158 -8.137233949134862 0 0 0
2163 702 3 0.5564 -3.344690742635042 0.4102307799744456 -11.719394508851716 0 0 1
2161 702 2 -1.1128 -3.545298149019289 0.24989596527620725 -12.641501678664037 0 0 1
2162 702 3 0.5564 -4.5013557164841 0.2199693739925876 -12.67742497924545 0 0 1
119 21 3 0.5564 -3.64632828288734 3.8671179690795627 -11.289364511434057 0 0 0
494 146 3 0.5564 -6.796412186866607 1.576018382228793 -11.68786699055237 0 0 0
420 121 3 0.5564 -5.602117943404469 3.410211756652951 -9.501691932326956 0 0 0
418 121 2 -1.1128 -4.896099647171597 2.8265524462206293 -9.779382123170766 0 0 0
419 121 3 0.5564 -4.472170781428864 2.557973835541573 -8.964285966958004 0 0 0
493 146 2 -1.1128 -6.232357108061395 0.9157120067668553 -11.285288060643328 0 0 0
495 146 3 0.5564 -5.669799351894884 1.4112364105566289 -10.690126123535336 0 0 0
118 21 2 -1.1128 -2.973648324521158 4.548093345089194 -11.291938886848913 0 0 0
120 21 3 0.5564 -2.906279907525286 4.822336101257309 -10.3773435645534 0 0 0
926 290 3 0.5564 -3.8405353355099003 5.895429878915114 -12.188903352284282 -1 0 0
1015 320 2 -1.1128 -6.642073799615566 4.866906437181511 -11.782109482487268 0 0 0
1016 320 3 0.5564 -7.304195114113921 5.318193480821207 -11.258499064704848 0 0 0
1017 320 3 0.5564 -6.00885511549679 5.548428084036697 -12.007486998420102 0 0 0
219 54 3 0.5564 -1.2477034739849346 1.8096319624783204 -11.833763564354381 0 0 0
247 64 2 -1.1128 -1.6725409197652144 0.48184084511416597 -10.47664317538779 0 0 0
217 54 2 -1.1128 -0.8678105443426024 2.636692800982362 -12.130216647009787 0 0 0
218 54 3 0.5564 -1.1661705662715154 3.281429134021282 -11.488711658823746 0 0 0
249 64 3 0.5564 -1.7062152829307202 0.9211617666312504 -9.626881007394973 0 0 0
1322 422 3 0.5564 -3.341761826584422 1.8108103687964812 -13.786861652920747 0 0 1
406 117 2 -1.1128 -1.7659621646669872 6.392951791881127 -8.705080398680396 0 0 0
925 290 2 -1.1128 -4.505383161756356 6.408739156215226 -12.647950805882989 -1 0 0
407 117 3 0.5564 -0.9403173299640307 5.9472035008006765 -8.515734741852462 0 0 0
1468 471 2 -1.1128 -6.833071773574774 4.419192351495003 -8.192689125996576 0 0 0
408 117 3 0.5564 -2.188504151670687 6.488227469398619 -7.851491660539661 0 0 0
977 307 3 0.5564 -0.725151849704019 3.1996312478679236 -8.255113319627506 0 0 0
976 307 2 -1.1128 -1.1332959467213373 2.343948671423068 -8.38724044960817 0 0 0
92 12 3 0.5564 -7.270633403971758 3.235613137124855 -12.664373591334432 0 0 0
91 12 2 -1.1128 -7.516827510242617 2.4949363924947687 -13.218466912717332 0 0 0
623 189 3 0.5564 -1.000811131307327 5.358411209529667 -14.606498373028424 0 0 0
781 242 2 -1.1128 -5.536908851377381 7.197746784746348 -8.301448178008261 0 0 0
978 307 3 0.5564 -0.8264840176449239 1.8153914877231538 -7.650541288246737 0 0 0
93 12 3 0.5564 -6.956621885688035 2.5760356854978164 -13.99036396561686 0 0 0
2064 669 3 0.5564 -4.277601528542256 4.48484952013591 12.86952493720432 0 0 0
1321 422 2 -1.1128 -3.0257915354506495 2.353620188087115 -14.509186645561927 0 0 1
1323 422 3 0.5564 -2.339935164642876 1.8286032776039696 -14.921728271199378 0 0 1
2063 669 3 0.5564 -3.453669720188978 3.337667278295888 13.414506915795277 0 0 0
2062 669 2 -1.1128 -3.3745554575140666 4.209569044592271 13.027518251438135 0 0 0
129 24 3 0.5564 1.0439131919117355 -0.8324093310288034 -10.899069181994086 0 0 0
1875 606 3 0.5564 0.7485283021278447 1.9424004805125978 -12.829109786386313 0 0 1
776 240 3 0.5564 4.871846156193671 1.6957593934629882 -8.209846444016259 0 1 0
777 240 3 0.5564 4.887493868053329 2.931498170661267 -7.335431987529496 0 1 0
775 240 2 -1.1128 4.300293994006248 2.368693785691761 -7.840090622139947 0 1 0
213 52 3 0.5564 1.3166442671240435 -0.2916657609561834 -14.4842209418186 0 0 0
1873 606 2 -1.1128 1.5036622889092293 1.4741103430708458 -13.185071716152821 0 0 1
1874 606 3 0.5564 1.8929793451403425 1.0360695876084371 -12.428246510700422 0 0 1
2216 720 3 0.5564 -0.09441256134526542 6.797044287402876 -13.390989029416659 0 0 1
622 189 2 -1.1128 -0.37664298625659387 5.097394734869096 -13.929359652682509 0 0 0
624 189 3 0.5564 -0.8596185210357086 4.476109821776043 -13.384408085912577 0 0 0
186 43 3 0.5564 1.763674464703202 7.351758072350819 -9.263484561679627 0 0 0
184 43 2 -1.1128 1.8494753736110305 7.204787213820992 -8.321533865435736 0 0 0
185 43 3 0.5564 2.786527093304959 7.065264102123627 -8.184786226212651 0 0 0
2075 673 3 0.5564 -9.427752622298028 8.403887084660255 -13.022308958272276 0 0 1
705 216 3 0.5564 -9.549021210886126 10.02327795014862 -8.08077746020992 0 0 0
2074 673 2 -1.1128 -9.07642460562675 7.941462561592947 -12.261412089539084 0 0 1
703 216 2 -1.1128 -9.185628236830869 10.17208558090051 -8.953723442138166 0 0 0
704 216 3 0.5564 -9.215463831800502 9.313420391917841 -9.375666415502893 0 0 0
2076 673 3 0.5564 -8.139741895724795 8.138279349265256 -12.272391529929747 0 0 1
444 129 3 0.5564 -8.696748553423202 9.857709367912161 14.07463074148666 0 0 -1
442 129 2 -1.1128 -8.735128346695484 10.416094501787024 14.851138984286111 0 0 -1
197 47 3 0.5564 -7.548078583388214 10.63835235336339 -13.673108023714557 0 0 0
737 227 3 0.5564 -6.179059309034563 13.083604028246182 -7.940131220967882 0 0 0
927 290 3 0.5564 -4.541384910326248 6.025772694568117 -13.524462628583198 -1 0 0
148 31 2 -1.1128 -5.211216211153373 7.0628780824839525 14.7883059910703 0 0 -1
353 99 3 0.5564 -2.4417977158739195 14.502377140461197 -12.028269892462497 0 -1 0
743 229 3 0.5564 -7.681727368658637 11.043009315292982 -9.057679028811481 0 0 0
772 239 2 -1.1128 -1.7974638411529265 13.923805731262346 -8.966942680197908 0 0 0
533 159 3 0.5564 -6.096352187544767 13.99787840611389 -11.584645982139827 0 0 0
742 229 2 -1.1128 -6.793987778483787 11.390983351843515 -8.973629085252597 0 0 0
744 229 3 0.5564 -6.711830636388666 12.015604256904743 -9.694275177138394 0 0 0
532 159 2 -1.1128 -5.934722737513602 13.118415325159216 -11.243101702162601 0 0 0
783 242 3 0.5564 -5.059039596849552 7.777141308858267 -8.894891380226747 0 0 0
486 143 3 0.5564 -0.8827704349974251 7.701414950705319 -9.842195980416465 0 0 0
1718 554 3 0.5564 -5.598173103549971 10.286491881666924 -9.622548246031775 0 0 0
1717 554 2 -1.1128 -5.013378218847556 9.612125989750753 -9.968206057497566 0 0 0
774 239 3 0.5564 -1.8779420039699055 13.255414639436134 -8.286494503400345 0 0 0
1719 554 3 0.5564 -4.1467528650047445 10.018468703451582 -9.959356848182358 0 0 0
773 239 3 0.5564 -2.433746918782782 13.66532007294494 -9.633697696592023 0 0 0
273 72 3 0.5564 -5.625806933052936 8.059067696610722 -12.298109467219671 0 0 0
271 72 2 -1.1128 -6.393124927899786 8.54021632239452 -11.988349959230861 0 0 0
272 72 3 0.5564 -6.084182646203906 9.012667055612658 -11.215319000567991 0 0 0
513 152 3 0.5564 -4.0761477711472125 13.067840440777587 -11.220278713066415 0 0 0
511 152 2 -1.1128 -3.1203070812624754 13.023910108366257 -11.194354750444857 0 0 0
485 143 3 0.5564 -0.4383697116177044 7.973680674837869 -11.26355999766619 0 0 0
512 152 3 0.5564 -2.929329444801811 12.147812684881375 -10.85937148799504 0 0 0
766 237 2 -1.1128 -3.3936939354097064 11.12926492694383 -13.941189004961483 0 0 0
2186 710 3 0.5564 -3.6267470968563926 8.0238987492914 -12.874861539433072 0 0 1
2185 710 2 -1.1128 -2.9193274791752346 8.594004344896824 -12.573581189819208 0 0 1
768 237 3 0.5564 -4.056194007755337 11.554695317105091 -14.48555532377875 0 0 0
767 237 3 0.5564 -2.634906179077877 11.710875625971138 -13.988117888006398 0 0 0
2187 710 3 0.5564 -3.2073398501891313 9.47689061186493 -12.805514893645508 0 0 1
534 159 3 0.5564 -5.98813483544875 12.549243668091245 -12.010840351488117 0 0 0
484 143 2 -1.1128 -0.5560223526341136 8.396814843450848 -10.413061682690284 0 0 0
296 80 3 0.5564 -1.7997720866122044 10.156113848945745 -10.192612550574918 0 0 0
198 47 3 0.5564 -6.305682609722616 10.42065033577756 -12.835878206168196 0 0 0
295 80 2 -1.1128 -2.2977825035127095 10.815512753249019 -9.709485588833338 0 0 0
297 80 3 0.5564 -1.760415010990176 11.00647069291199 -8.94071808424215 0 0 0
782 242 3 0.5564 -5.987045566914673 7.7897528102454805 -7.698839088972791 0 0 0
2061 668 3 0.5564 -0.6560837092141759 14.347035742199893 -13.040400626212307 0 -1 1
542 162 3 0.5564 0.32703620784418824 9.830053525798132 -9.714988863158542 0 0 0
2217 720 3 0.5564 -0.9908906973369574 7.9217120666699845 -12.918395566996676 0 0 1
302 82 3 0.5564 -6.242358842527666 11.703131027788336 -14.804588256254517 0 0 0
196 47 2 -1.1128 -6.806311888948347 11.102056661363358 -13.284529546218216 0 0 0
2215 720 2 -1.1128 -0.0772628793048786 7.712842664196548 -13.113048186461228 0 0 1
1701 548 3 0.5564 -0.3246382259037745 13.20943602864933 -9.974409197419615 0 0 1
158 34 3 0.5564 3.6714760890827804 14.089291184710216 -13.833388153514717 0 -1 0
1535 493 3 0.5564 5.959443325120724 14.574691835591645 -13.721441802199745 0 -1 1
1699 548 2 -1.1128 0.5256626303159612 13.11867205683174 -10.404505597952614 0 0 1
2060 668 3 0.5564 0.29359393998405237 13.508561777965713 -12.211564703323855 0 -1 1
2059 668 2 -1.1128 0.19129316807801564 13.903406324201738 -13.077511714305986 0 -1 1
541 162 2 -1.1128 0.7180038327599388 10.56248169430077 -9.238622199269843 0 0 0
157 34 2 -1.1128 2.9698281479733133 13.445473967778474 -13.930460314083476 0 -1 0
159 34 3 0.5564 2.1741459925553 13.919333149167159 -13.688428363467176 0 -1 0
327 90 3 0.5564 1.5509800058660963 7.593252384573709 -11.747658403544182 0 0 0
222 55 3 0.5564 7.217319142883418 10.288975025033052 -11.035271855592708 0 0 0
404 116 3 0.5564 2.64608698031355 11.191034443358575 -9.904950547045702 0 0 0
405 116 3 0.5564 3.633778257378212 11.184752002835651 -11.05226161124104 0 0 0
1700 548 3 0.5564 0.8746699806510665 12.290932409841737 -10.073940323365928 0 0 1
325 90 2 -1.1128 2.244360830253058 7.534516081092614 -11.090387490242586 0 0 0
403 116 2 -1.1128 3.583539126615569 11.164763533507461 -10.09658924978344 0 0 0
326 90 3 0.5564 2.894019183730158 6.948462377481617 -11.478610293638598 0 0 0
1081 342 2 -1.1128 3.813020223258327 11.11405084058479 -13.009342921228903 0 -1 0
1082 342 3 0.5564 3.5509128007130157 11.98500888905969 -13.307613967730582 0 -1 0
1083 342 3 0.5564 3.5478063282322276 10.527796648375684 -13.718003492972846 0 -1 0
214 53 2 -1.1128 6.653537547006432 10.187562129683792 -13.020821433217959 0 0 0
216 53 3 0.5564 5.750505008925836 9.881468037815996 -12.936731116301353 0 0 0
215 53 3 0.5564 6.916305888603567 9.92081331817856 -13.901747015159035 0 0 0
489 144 3 0.5564 6.226482207531086 9.666554373613316 -8.999235233244658 0 0 0
487 144 2 -1.1128 5.397997565233702 9.765471010541862 -8.530129091631856 0 0 0
436 127 2 -1.1128 7.408462035810509 12.884795403091417 -13.608906010084873 0 0 0
437 127 3 0.5564 7.0514671565021345 12.093958054231052 -13.204722697546252 0 0 0
488 144 3 0.5564 4.783125357559677 10.080282236521295 -9.192743554209011 0 0 0
2190 711 3 0.5564 4.378265624931531 12.80309737724221 -9.445682197677051 0 0 1
2128 691 2 -1.1128 1.71498909162793 9.507708102917277 -14.618036886952618 0 0 1
2129 691 3 0.5564 1.0319522848993328 9.36642139981373 -13.962498286265989 0 0 1
2130 691 3 0.5564 1.605659091556405 8.78649261483573 14.762182592650761 0 0 0
2188 711 2 -1.1128 4.837717478130125 13.561534210996912 -9.085251765553085 0 0 1
2151 698 3 0.5564 1.1143393064919667 14.720004921445028 -8.309571810472198 0 0 1
2150 698 3 0.5564 0.2009168819471058 13.999093657081279 -7.341149461281244 0 0 1
438 127 3 0.5564 8.131733703360094 13.14119384771941 -13.036743358246591 0 0 0
2189 711 3 0.5564 5.678955766601952 13.571771664851786 -9.541809914968802 0 0 1
543 162 3 0.5564 0.5882264139138894 10.345018746712137 -8.315529786751052 0 0 0
1262 402 3 0.5564 4.805013217516495 14.788606135571381 -7.691893398552103 -1 0 0
1254 399 3 0.5564 5.645178407713034 10.890247541852554 -7.127298986272509 -1 0 0
221 55 3 0.5564 8.133239848928499 11.010892816664617 -10.069963679350273 0 0 0
220 55 2 -1.1128 7.516535167066061 10.280988940142375 -10.126075321177233 0 0 0
560 168 3 0.5564 7.459530790010522 14.966681634559661 -8.882570096225733 0 -1 0
559 168 2 -1.1128 7.846493841841855 14.123708743355948 -9.118978027306039 0 -1 0
561 168 3 0.5564 7.600925527280232 13.537701715262813 -8.403069124243103 0 -1 0
1728 557 3 0.5564 10.161973909899263 12.80185250497302 -10.684494826354028 0 0 1
1726 557 2 -1.1128 9.296830334596084 12.423650602137398 -10.527263262884832 0 0 1
1727 557 3 0.5564 8.814012480039526 13.11132826066145 -10.068767628785544 0 0 1
177 40 3 0.5564 -6.614181677944375 -12.935652059054929 -5.0016066693814 0 0 0
1655 533 3 0.5564 -9.965568789991822 14.385555661931905 0.17850561334317985 0 0 0
268 71 2 -1.1128 -9.079064706720862 -13.604388421969466 -3.7762859359222487 0 1 0
269 71 3 0.5564 -9.298370987852136 -12.94181392845695 -3.1212045185600426 0 1 0
270 71 3 0.5564 -8.235786804490074 -13.955186550750398 -3.4898323897669306 0 1 0
825 256 3 0.5564 -10.030657917296702 14.588560520041788 -3.380466484066617 0 -1 0
255 66 3 0.5564 -7.031903396030155 14.38919143460924 -0.31912534464236947 0 0 -1
1041 328 3 0.5564 -4.347986833611313 -13.316843245670146 -7.649508632790471 0 0 0
1039 328 2 -1.1128 -5.249769200047651 -13.17101778551863 -7.935438181087576 0 0 0
175 40 2 -1.1128 -6.405631252689719 -12.186572461819905 -5.559835614699789 0 0 0
176 40 3 0.5564 -5.979824537006264 -12.569893840052378 -6.326638162155495 0 0 0
230 58 3 0.5564 -4.926541436347598 -12.577060711137761 -1.949703153980304 0 1 -1
1010 318 3 0.5564 -5.400237394760899 -11.316458827478417 -4.3313164071076375 0 1 0
1009 318 2 -1.1128 -4.834427273939245 -11.191734457664243 -3.5693870874053553 0 1 0
608 184 3 0.5564 -5.837115602327528 -11.296036743531657 0.05133544663223655 0 0 0
795 246 3 0.5564 -8.315002021354099 -9.78202578451815 -6.978789406308253 0 0 0
793 246 2 -1.1128 -7.405614754504673 -9.495983869632788 -7.064968470522967 0 0 0
794 246 3 0.5564 -6.935506909294945 -9.983724840137485 -6.388699614688497 0 0 0
1351 432 2 -1.1128 -2.4440333393522695 -13.403761962040962 -5.997191371621379 0 0 0
1352 432 3 0.5564 -2.1860213070682066 -12.88966211300577 -5.232100229532319 0 0 0
815 253 3 0.5564 -3.1979300050254778 -14.770489049128743 -3.736492127180605 0 0 0
1011 318 3 0.5564 -3.946624956589143 -11.191526578459495 -3.9272129147238135 0 1 0
320 88 3 0.5564 -4.930152195806219 -9.592056932313582 -3.4081176391065338 0 0 0
1037 327 3 0.5564 -1.8970957022246393 -8.787152934715971 -2.16763164404382 0 0 0
1038 327 3 0.5564 -1.6631130688641709 -8.522145215422388 -3.6396774090973456 0 0 0
1036 327 2 -1.1128 -2.135637329047532 -9.09982296316667 -3.0403098881339456 0 0 0
304 83 2 -1.1128 -1.9140883901654604 -12.147674248909578 -3.6683609441923335 0 0 0
305 83 3 0.5564 -1.536642507788308 -12.981857671086736 -3.3892471464108347 0 0 0
306 83 3 0.5564 -2.0979715254153684 -11.68244353667349 -2.852285438716769 0 0 0
1807 584 2 -1.1128 -0.3104040196877397 -14.243186490936354 -2.773166738556332 0 0 0
1809 584 3 0.5564 0.4948966521991941 -14.196328155122043 -3.2884598450464266 0 0 0
1033 326 2 -1.1128 -2.0425327005656606 -14.86008136555269 -0.5813340119245015 0 0 0
1034 326 3 0.5564 -2.647926307903687 -14.686458379106355 -1.3021573010577272 0 0 0
814 253 2 -1.1128 -3.7163648207219655 -14.832738236158578 -2.9342563564793815 0 0 0
1029 324 3 0.5564 -1.4058460965786943 14.662258054596991 -3.986478927511804 0 0 0
1028 324 3 0.5564 -2.1750949999011735 14.78734278594972 -5.284364379461839 0 0 0
572 172 3 0.5564 -0.3708087179297297 -11.62599437982429 -1.609593422725954 0 0 0
573 172 3 0.5564 0.9906295237253891 -12.280540916638774 -1.709343626703586 0 0 0
571 172 2 -1.1128 0.5364600556265566 -11.451507212800378 -1.8598932938987074 0 0 0
319 88 2 -1.1128 -4.9373519300331905 -8.636113590241113 -3.4566196172675454 0 0 0
321 88 3 0.5564 -4.01715864675519 -8.384841093182226 -3.3770060303901515 0 0 0
1808 584 3 0.5564 -0.0865055268673421 -14.800949012970865 -2.0281819589277115 0 0 0
346 97 2 -1.1128 -2.927251676556786 -8.531749081186659 -5.9049692409618135 0 0 0
347 97 3 0.5564 -3.8423451315244437 -8.752703503853557 -6.078217563727735 0 0 0
231 58 3 0.5564 -5.201300388225014 -13.495669630767805 -0.7781395706550646 0 1 -1
229 58 2 -1.1128 -4.744044717112061 -12.689322781761716 -1.0167912718344347 0 1 -1
1580 508 3 0.5564 -2.913539598579933 -11.993845983806747 -0.5332314112549625 0 0 0
348 97 3 0.5564 -2.426239090560114 -9.196254081059529 -6.377887213191021 0 0 0
1035 326 3 0.5564 -1.4572680341202537 -14.102713751142828 -0.5717665735024688 0 0 0