1770
 Atoms. Timestep: 500
C 2.1889 0.586142 2.60826
C 3.09466 0.170564 1.59937
C 1.29239 -0.297043 3.26083
C 3.06652 -1.18958 1.20146
C 3.1669 -1.46243 -0.186369
C 3.22331 1.2392 0.676354
C 3.28103 0.922779 -0.704341
C 3.26863 -0.424521 -1.14641
C -0.436449 1.38302 3.18614
C 0.461755 2.31679 2.61016
C -0.0592558 0.0544616 3.50539
C 1.79058 1.91654 2.32123
C 2.38591 2.30458 1.09422
C -0.263902 3.09038 1.6689
C 0.322166 3.47693 0.437412
C 1.67667 3.13667 0.192132
C -2.1213 -0.85027 2.65677
C -2.52571 0.455762 2.2808
C -0.871329 -1.08629 3.28247
C -1.70676 1.57196 2.58496
C -1.61396 2.65659 1.67607
C -3.31798 0.394585 1.10655
C -3.17867 1.46986 0.193277
C -2.2989 2.55445 0.439074
C -0.482863 -2.9653 1.75794
C -1.76493 -2.73281 1.19837
C -0.0270573 -2.11789 2.79892
C -2.60952 -1.67065 1.60847
C -3.37716 -0.949782 0.65897
C -1.69069 -3.08448 -0.173478
C -2.3885 -2.27745 -1.10709
C -3.24602 -1.21371 -0.727763
C 2.13607 -2.09945 1.765
C 1.7318 -2.97481 0.725164
C 1.30972 -1.64566 2.82373
C 0.393852 -3.44241 0.750715
C -0.343262 -3.42076 -0.460391
C 2.33135 -2.56655 -0.493172
C 1.64226 -2.65988 -1.72852
C 0.272891 -3.02367 -1.67367
C -2.22478 -0.598081 -2.63161
C -1.77314 -1.90821 -2.33014
C -0.447999 -2.29448 -2.65336
C -1.31461 0.329947 -3.19745
C -2.2375 2.09076 -1.78157
C -3.17982 1.20496 -1.19975
C -3.13632 -0.139532 -1.64678
C -1.28003 1.67134 -2.73928
C 0.534351 3.02473 -1.80291
C -0.37513 3.4377 -0.796601
C -1.70634 2.95066 -0.786856
C 0.0736366 2.09235 -2.76618
C 2.16334 0.843972 -2.64086
C 2.59538 1.74469 -1.63439
C 1.79601 2.82633 -1.18647
C 0.873642 1.00729 -3.2062
C 0.457802 -1.3868 -3.25873
C 1.72945 -1.6023 -2.66929
C 2.55814 -0.491193 -2.37172
C 0.00660604 -0.0691389 -3.52243
O -12.0311 -11.7015 -11.4822
H -12.2323 -10.834 -11.8332
H -12.3253 -11.6664 -10.572
O -9.33498 -11.9958 -11.5086
H -10.2889 -11.9168 -11.4999
H -9.16549 -12.8035 -11.9935
O -6.0424 -13.2477 -11.9374
H -6.10793 -12.9506 -11.0298
H -6.42213 -12.535 -12.4512
O -3.17471 -12.1238 -11.7947
H -3.98283 -12.6029 -11.9782
H -3.07778 -12.1722 -10.8436
O -0.371047 -12.0931 -12.3587
H -1.32329 -12.1523 -12.4359
H -0.175355 -12.4763 -11.5036
O 2.91208 -11.7845 -12.5448
H 2.1666 -11.8445 -13.1422
H 3.0643 -10.8448 -12.4446
O 6.55906 -13.3067 -11.4205
H 5.86614 -13.145 -12.0608
H 6.191 -13.0096 -10.5884
O 8.86827 -11.6319 -11.592
H 9.62994 -11.9051 -12.1033
H 8.22598 -12.3286 -11.7273
O 11.4057 -11.7475 -12.7466
H 12.2444 -12.2087 -12.7531
H 11.6275 -10.8495 -12.5003
O -12.0837 -9.17829 -12.5876
H -11.1645 -9.28498 -12.8324
H -12.2327 -8.23333 -12.6205
O -9.05335 -9.42975 -12.4675
H -9.15748 -10.3193 -12.1297
H -8.10945 -9.32858 -12.5902
O -6.30768 -8.80544 -12.2633
H -6.25358 -7.86836 -12.4509
H -5.39611 -9.09243 -12.2094
O -3.70386 -9.40628 -11.8053
H -3.45229 -10.3146 -11.9721
H -3.64602 -9.31203 -10.8545
O 0.337135 -9.47196 -11.8549
H 1.26812 -9.46362 -12.0772
H 0.0397228 -10.3482 -12.1
O 3.238 -9.03888 -11.9771
H 4.1438 -8.88796 -12.2473
H 3.26908 -9.03495 -11.0204
O 5.91873 -8.37437 -12.0563
H 6.83904 -8.60155 -12.1892
H 5.9224 -7.42657 -11.9225
O 8.61073 -8.89794 -12.0732
H 8.67745 -9.85264 -12.0553
H 9.24244 -8.60086 -11.4183
O 12.163 -9.25226 -11.7966
H 12.3921 -8.34365 -11.992
H 12.3716 -9.35799 -10.8684
O -11.8637 -6.38024 -12.3741
H -12.0182 -5.48596 -12.6785
H -10.9106 -6.45854 -12.333
O -9.13212 -6.59428 -12.0958
H -8.82613 -6.44969 -11.2004
H -9.13257 -7.54595 -12.1985
O -6.37241 -6.12526 -12.8154
H -7.32781 -6.18379 -12.8104
H -6.18418 -5.24553 -12.4885
O -3.32842 -6.76156 -12.4716
H -3.42484 -7.70361 -12.332
H -4.09023 -6.51765 -12.9973
O -0.50966 -6.82384 -12.4639
H -1.44686 -6.68183 -12.5971
H -0.42613 -7.76851 -12.3341
O 2.20082 -6.32222 -12.3525
H 1.28223 -6.47038 -12.5772
H 2.61033 -7.18331 -12.4365
O 6.35497 -5.64817 -11.5737
H 7.17945 -5.73984 -12.0512
H 5.99273 -4.81599 -11.8778
O 8.76051 -5.86729 -12.7429
H 8.84508 -6.77394 -13.0379
H 9.19147 -5.85184 -11.8883
O 12.9372 -6.47726 -11.8672
H 13.8865 -6.35578 -11.8532
H 12.584 -5.59501 -11.9818
O -12.1205 -3.01219 -11.9976
H -11.1766 -3.17064 -12.0082
H -12.2118 -2.09035 -12.2386
O -9.46584 -3.73813 -11.8702
H -9.14785 -3.75149 -10.9674
H -9.33553 -4.63305 -12.1838
O -5.97144 -3.43455 -12.0668
H -5.12186 -3.08519 -12.3359
H -6.611 -2.89291 -12.5292
O -3.44363 -2.24159 -12.4829
H -2.60256 -2.5571 -12.8135
H -3.37392 -1.2877 -12.5211
O -0.696935 -2.58495 -13.0567
H -0.482824 -1.6544 -12.99
H -0.0555071 -3.01971 -12.4948
O 1.77105 -3.61028 -11.6526
H 1.9767 -4.47668 -12.0037
H 2.18256 -3.59766 -10.7885
O 5.81689 -2.9243 -12.3384
H 5.72925 -2.72805 -11.4056
H 5.98914 -2.07599 -12.747
O 9.2371 -3.14945 -11.9167
H 8.87055 -3.85651 -12.4477
H 8.96026 -3.35212 -11.0231
O 11.9255 -3.77544 -11.83
H 10.9878 -3.61979 -11.9427
H 12.3457 -3.0289 -12.257
O -11.8547 0.192255 -12.1185
H -12.125 1.10171 -12.2453
H -10.8981 0.224289 -12.1162
O -9.05844 0.614905 -11.7932
H -8.20582 0.300924 -12.0944
H -9.07357 1.54017 -12.038
O -6.4084 0.0987891 -12.563
H -5.54833 -0.296867 -12.4216
H -6.23062 1.03549 -12.6479
O -3.07462 0.468408 -12.419
H -2.12829 0.324867 -12.4276
H -3.17275 1.4201 -12.3893
O -0.26537 0.335987 -12.4677
H 0.619494 -0.0236706 -12.4053
H -0.135338 1.28112 -12.5454
O 2.17263 -1.01278 -12.5089
H 2.12328 -1.93026 -12.2406
H 3.05223 -0.916496 -12.874
O 6.46846 -0.148413 -13.4732
H 7.3473 -0.169158 -13.0945
H 6.09497 0.67831 -13.1678
O 9.00798 -0.378471 -12.1327
H 9.04099 -1.33427 -12.1725
H 9.9159 -0.112858 -11.9865
O 11.5771 0.242938 -11.1662
H 11.9735 1.06092 -11.4662
H 12.12 -0.0298164 -10.4266
O -11.8926 3.06761 -12.0889
H -11.7562 2.98527 -11.1451
H -11.0121 3.16698 -12.4509
O -9.30583 3.20198 -13.0329
H -9.02249 2.99847 -13.9243
H -9.09533 4.12888 -12.9199
O -5.69752 2.83227 -12.4727
H -4.75981 2.95998 -12.6163
H -6.03725 3.71206 -12.309
O -2.8805 3.38878 -12.2818
H -2.98928 4.30123 -12.5498
H -1.94285 3.22107 -12.3762
O -0.024668 3.30166 -12.5322
H 0.918153 3.14067 -12.5697
H -0.107636 4.25402 -12.5808
O 2.77994 3.29641 -12.7263
H 3.6446 2.88822 -12.6819
H 2.95722 4.23684 -12.7065
O 5.64515 2.34349 -12.4181
H 5.87702 3.24839 -12.627
H 5.73131 2.28721 -11.4664
O 9.46341 2.97904 -12.3851
H 9.11021 3.86457 -12.2996
H 8.70213 2.43567 -12.5887
O 12.1536 2.96575 -11.9781
H 11.2234 2.90751 -12.1961
H 12.4063 3.85139 -12.239
O -12.7088 5.64668 -11.0851
H -12.4728 4.88447 -11.6139
H -12.4555 6.39826 -11.6211
O -8.51859 5.90258 -13.0552
H -7.59498 5.81552 -12.8194
H -8.8162 6.67697 -12.5777
O -6.03096 5.5507 -11.8648
H -5.14554 5.89616 -11.9784
H -6.32883 5.92227 -11.0345
O -2.99989 6.20381 -12.8015
H -2.04515 6.23983 -12.8598
H -3.28505 7.10056 -12.9768
O -0.107801 6.29172 -12.4461
H -0.273246 7.17454 -12.1152
H 0.844044 6.24313 -12.5348
O 2.6481 6.14274 -12.3534
H 2.63098 6.13337 -11.3964
H 3.0004 7.00376 -12.5787
O 6.33452 5.051 -12.3436
H 7.24951 5.33199 -12.3522
H 6.02469 5.26924 -11.4646
O 8.99973 5.8368 -12.3835
H 9.93605 5.70512 -12.5325
H 8.90897 6.77959 -12.2452
O 11.7892 5.7015 -12.7912
H 11.9507 5.80286 -13.7292
H 11.9722 6.56524 -12.4215
O -11.7726 8.34789 -11.8308
H -11.9256 8.50634 -10.8993
H -10.8195 8.34289 -11.92
O -8.94807 8.3921 -11.7592
H -8.23292 8.89566 -12.148
H -8.95925 8.66111 -10.8406
O -6.21648 9.98799 -12.2579
H -5.32968 9.71597 -12.4942
H -6.17313 10.9436 -12.2232
O -3.351 9.0488 -12.5992
H -2.63628 8.81959 -12.0052
H -3.11626 9.91409 -12.9344
O -0.858177 8.70547 -11.252
H -0.550827 9.56913 -11.5274
H -0.549064 8.61701 -10.3504
O 3.53413 8.80856 -11.9596
H 3.16366 9.68326 -12.0775
H 3.35059 8.59131 -11.0457
O 6.28177 9.51856 -11.6607
H 5.4849 9.06409 -11.934
H 6.99478 8.95975 -11.9699
O 9.06687 8.66398 -12.1277
H 9.03134 9.59955 -12.3269
H 9.9965 8.4834 -11.9884
O 11.773 8.4381 -11.7443
H 11.9921 9.36634 -11.8257
H 11.8151 8.26311 -10.8042
O -12.025 11.1585 -11.8364
H -11.1299 11.473 -11.9633
H -11.977 10.2194 -12.0153
O -9.45161 12.6515 -11.9597
H -8.4996 12.6026 -12.0463
H -9.70926 13.3656 -12.5428
O -6.6057 12.748 -11.7727
H -6.37646 13.6691 -11.8963
H -6.31789 12.5465 -10.8824
O -2.5044 11.7201 -12.8168
H -1.57962 11.7099 -12.57
H -2.60718 12.5221 -13.3291
O -0.00268309 11.4461 -11.6546
H -0.111762 11.7224 -10.7447
H 0.940365 11.4987 -11.81
O 2.68611 11.414 -12.3928
H 3.53813 11.7666 -12.136
H 2.5891 11.666 -13.3112
O 5.2857 12.1009 -11.7771
H 5.78568 12.6409 -11.1651
H 5.73854 11.2576 -11.7782
O 9.30531 11.4389 -12.3495
H 9.09861 11.9867 -13.1068
H 10.2597 11.4714 -12.2831
O 12.0344 11.3387 -11.8795
H 12.8617 11.733 -12.1558
H 11.9671 11.5498 -10.9483
O -12.1611 -11.5156 -8.66689
H -12.1926 -10.5591 -8.68651
H -11.2284 -11.7259 -8.71238
O -9.48981 -11.9122 -8.69924
H -9.30205 -10.9817 -8.57602
H -9.22843 -12.0923 -9.60229
O -6.11965 -12.1058 -9.36871
H -6.1293 -12.2571 -8.42359
H -6.32131 -11.175 -9.46479
O -2.70687 -11.9978 -9.06867
H -3.03253 -12.3581 -8.24383
H -1.75415 -12.0124 -8.9774
O 0.0746821 -12.2228 -8.68318
H 0.0555596 -12.3828 -7.73964
H 0.951176 -12.495 -8.95504
O 2.63886 -12.6891 -9.93434
H 2.68499 -12.4816 -10.8677
H 3.50849 -12.4736 -9.59735
O 5.2448 -12.1396 -9.11725
H 5.34808 -12.4256 -8.20962
H 5.58778 -11.246 -9.12783
O 9.68886 -11.9114 -8.95435
H 9.40359 -12.0353 -9.8596
H 9.66572 -10.9635 -8.82313
O 12.3565 -12.3078 -8.4642
H 12.5852 -11.4231 -8.74923
H 11.4228 -12.3888 -8.65908
O -11.9186 -8.81492 -8.5657
H -12.2572 -8.01907 -8.97579
H -12.1111 -8.70561 -7.63444
O -9.10677 -9.22406 -8.59196
H -9.03123 -8.95748 -7.67574
H -9.97776 -8.9284 -8.8569
O -6.55048 -9.41798 -9.56753
H -6.57849 -9.19505 -10.498
H -7.43979 -9.25289 -9.25432
O -3.74833 -9.41071 -9.03117
H -4.70529 -9.41191 -9.00972
H -3.50695 -10.3369 -9.02379
O 0.853117 -9.63224 -9.1561
H 0.571982 -10.5227 -8.94559
H 0.535093 -9.48441 -10.0467
O 3.49405 -8.83362 -9.24961
H 2.68133 -9.30603 -9.06919
H 3.23953 -7.91089 -9.25332
O 6.59064 -9.45617 -9.48474
H 6.71685 -8.58243 -9.11478
H 6.25902 -9.29701 -10.3684
O 9.39727 -9.1759 -8.99165
H 9.23374 -8.84096 -8.11
H 8.52547 -9.33441 -9.35369
O 12.1312 -9.41475 -8.98289
H 12.2258 -9.36367 -8.03175
H 11.1892 -9.33844 -9.13484
O -12.7648 -6.48748 -9.77052
H -12.5891 -5.57354 -9.54674
H -12.5027 -6.56459 -10.6879
O -8.12898 -5.75723 -9.67128
H -7.22062 -5.73241 -9.37045
H -8.55323 -5.03132 -9.21378
O -5.55747 -5.28338 -8.62562
H -4.69666 -5.48188 -8.99418
H -5.68316 -4.35033 -8.79843
O -3.06935 -5.475 -9.91156
H -2.19641 -5.76254 -9.64412
H -3.18869 -5.84998 -10.7841
O -0.370085 -6.27897 -9.78094
H 0.551586 -6.25941 -9.52331
H -0.351702 -6.41811 -10.7278
O 2.42122 -6.35924 -9.61444
H 2.36626 -6.34325 -10.5699
H 2.77479 -5.50118 -9.38001
O 7.36012 -6.71599 -9.17475
H 7.00267 -6.3292 -8.37546
H 6.88652 -6.28161 -9.88415
O 9.7166 -5.72177 -10.2078
H 8.99266 -6.09281 -9.70339
H 10.5035 -6.08294 -9.79965
O 12.1526 -6.63444 -9.34668
H 12.2574 -7.56185 -9.13417
H 12.4751 -6.55603 -10.2445
O -12.1614 -3.81497 -9.35209
H -11.2196 -3.73353 -9.20139
H -12.2921 -3.48162 -10.2398
O -9.50334 -3.47377 -8.78546
H -9.57409 -3.48848 -7.831
H -9.33645 -2.55589 -8.99962
O -5.76628 -2.65373 -9.40701
H -4.81035 -2.60618 -9.41958
H -6.00498 -2.92081 -10.2947
O -3.14494 -2.68731 -9.85318
H -3.14498 -2.51307 -10.7944
H -2.99945 -3.63084 -9.78379
O 3.21352 -3.71709 -9.21444
H 2.92048 -3.20708 -8.45929
H 4.0935 -3.3887 -9.39894
O 5.75756 -2.60194 -9.62953
H 6.63932 -2.86119 -9.36208
H 5.70376 -1.67191 -9.40958
O 8.71296 -2.99753 -9.05788
H 9.64992 -3.17597 -9.13853
H 8.63845 -2.05003 -9.1716
O 11.4697 -3.04614 -9.2141
H 11.7105 -3.45255 -10.0466
H 11.9848 -2.23993 -9.18278
O -11.9327 -0.157803 -9.32803
H -12.1044 -0.0810083 -10.2666
H -11.0096 -0.404597 -9.27229
O -9.2458 -0.721107 -9.43974
H -9.14073 -0.248945 -10.2657
H -8.49703 -0.447438 -8.90994
O -6.79659 -0.108076 -8.37379
H -6.38636 -0.904457 -8.71101
H -6.414 0.598011 -8.89465
O 5.85311 0.0699786 -9.08918
H 6.80242 0.0295836 -9.20502
H 5.63951 0.998566 -9.18045
O 8.52294 -0.336795 -9.40645
H 9.19462 -0.0166982 -8.80427
H 8.88538 -0.175999 -10.2777
O 13.0035 -0.789292 -9.00434
H 12.8752 -0.458969 -8.11515
H 13.9504 -0.905194 -9.08304
O -11.3812 2.61136 -9.44196
H -11.5634 1.68232 -9.30072
H -10.4654 2.71813 -9.18513
O -8.77159 3.03624 -8.72298
H -8.88264 3.98603 -8.68036
H -7.88919 2.91326 -9.07293
O -6.17068 2.44862 -9.72947
H -5.39504 2.93574 -9.45142
H -6.11125 2.42759 -10.6846
O -3.57762 3.66939 -9.52057
H -3.30508 3.6226 -10.437
H -3.08788 2.96959 -9.08852
O 6.06465 2.76989 -9.71431
H 7.0088 2.8833 -9.60496
H 5.69949 3.64237 -9.56712
O 8.71582 3.53532 -9.27022
H 9.63317 3.4894 -9.53965
H 8.54075 4.47136 -9.17322
O 11.4785 3.84163 -9.4701
H 11.8461 3.44758 -10.2612
H 11.9454 3.41631 -8.75087
O -12.1712 6.35893 -8.48592
H -12.4661 5.96423 -9.30659
H -12.1661 7.30007 -8.66049
O -9.36162 5.73216 -8.2902
H -10.2816 5.91292 -8.48308
H -9.33139 5.63027 -7.33891
O -6.99483 6.70951 -9.56673
H -7.79904 6.47209 -9.10509
H -6.92397 7.65734 -9.45342
O -2.75073 6.22942 -8.88778
H -3.1421 5.37148 -9.05211
H -2.64362 6.26625 -7.9373
O -0.174054 6.06712 -9.64645
H -0.210557 5.97893 -10.5989
H -1.08913 6.14881 -9.37776
O 2.45293 6.63079 -9.65103
H 2.88986 6.21718 -8.90655
H 1.52292 6.45039 -9.514
O 5.9158 5.69917 -9.52057
H 6.81333 6.03178 -9.51447
H 5.60747 5.82409 -8.62304
O 8.54392 6.36257 -8.91907
H 8.52044 6.13881 -7.98868
H 9.47486 6.36584 -9.1417
O 11.1746 6.5529 -9.49204
H 11.8389 7.00611 -8.97292
H 11.4457 5.63498 -9.48018
O -11.9826 8.9847 -9.12163
H -11.029 9.02929 -9.0511
H -12.27 9.89618 -9.06872
O -9.30327 9.31897 -9.12901
H -8.91748 9.14666 -8.27011
H -9.28651 10.2724 -9.21273
O -6.39464 9.43771 -9.58903
H -6.34363 9.53718 -10.5397
H -5.5205 9.14517 -9.3311
O -3.9114 8.75261 -8.79695
H -3.43931 9.41652 -9.29952
H -3.52836 7.92158 -9.07786
O 0.485064 9.36091 -8.9015
H 1.43368 9.2351 -8.9244
H 0.209942 8.96212 -8.07597
O 3.39142 9.71159 -9.11484
H 4.33398 9.56463 -9.19367
H 3.20258 9.56626 -8.18778
O 6.09191 9.60956 -8.94436
H 6.2991 9.45426 -9.86588
H 6.24788 10.5454 -8.81774
O 9.41597 8.88869 -8.29875
H 9.03229 8.08764 -8.6556
H 8.99373 9.59531 -8.78725
O 12.1363 9.14522 -8.6901
H 12.6216 9.25805 -7.87277
H 11.2306 9.00505 -8.41407
O -12.2979 11.7307 -9.15499
H -11.3701 11.9487 -9.06625
H -12.4335 11.6381 -10.098
O -9.50833 12.0771 -9.21245
H -8.95243 12.5904 -8.62624
H -9.4149 12.502 -10.0651
O -5.58201 12.0078 -9.28061
H -4.65963 11.8612 -9.49027
H -5.96935 11.1325 -9.27696
O -3.05843 11.1293 -10.0392
H -2.91346 11.351 -10.959
H -2.26877 11.4333 -9.59171
O -0.640966 11.8313 -8.84558
H -0.567767 12.2252 -7.97626
H -0.2063 10.9826 -8.76185
O 3.57345 12.435 -8.80882
H 3.40723 11.5135 -9.00757
H 3.06739 12.9167 -9.46311
O 6.32976 12.3089 -8.65832
H 6.48423 12.3521 -7.71466
H 5.39103 12.4689 -8.75541
O 8.77727 11.2491 -9.60984
H 8.79905 11.35 -10.5615
H 8.04523 11.7972 -9.32709
O 11.4696 11.693 -9.20016
H 11.7639 10.7988 -9.02676
H 10.5188 11.6207 -9.28423
O -11.5975 -11.5474 -5.85049
H -10.6882 -11.842 -5.90163
H -11.9628 -11.7456 -6.71278
O -8.7995 -12.6182 -6.09762
H -7.8445 -12.5535 -6.09489
H -9.04366 -12.5261 -7.01856
O -5.97189 -12.1275 -6.55502
H -5.05357 -12.3224 -6.36812
H -6.06459 -11.1956 -6.35684
O -3.00952 -12.4563 -6.31007
H -2.84493 -11.5139 -6.34068
H -2.14233 -12.8482 -6.20682
O 0.0347357 -12.6986 -5.8778
H -0.182283 -12.7377 -4.94635
H 0.991541 -12.6836 -5.90086
O 2.88765 -12.385 -5.55441
H 2.83366 -12.4758 -4.60306
H 3.80616 -12.5587 -5.76033
O 5.62052 -12.7868 -5.91323
H 5.82734 -13.0631 -5.02042
H 6.42318 -12.3707 -6.22771
O 8.03513 -11.6821 -6.74532
H 8.52102 -11.9974 -5.98329
H 8.55919 -11.9608 -7.49627
O 12.6647 -11.8489 -5.69353
H 12.6874 -12.1793 -6.5916
H 12.4875 -10.9129 -5.78664
O -12.2522 -8.88493 -5.80656
H -12.1213 -9.83311 -5.81104
H -12.2628 -8.6485 -4.87907
O -9.52725 -8.46935 -5.9917
H -9.34736 -7.55296 -5.78168
H -10.4816 -8.53876 -5.96523
O -6.38403 -9.47071 -5.86563
H -6.49521 -8.57628 -6.18791
H -6.33121 -9.37821 -4.91437
O -2.5224 -9.76504 -6.49778
H -2.92174 -9.42719 -7.29942
H -1.62576 -9.43052 -6.51691
O 0.081957 -8.80961 -6.6263
H 0.312334 -8.90071 -7.55089
H 0.876511 -9.06048 -6.15516
O 2.5646 -9.59537 -5.45992
H 2.65996 -10.5416 -5.56877
H 3.31039 -9.22328 -5.93065
O 4.80001 -8.70435 -6.78071
H 5.36597 -7.93239 -6.78234
H 4.51788 -8.797 -7.69068
O 8.99921 -9.18602 -6.09457
H 8.78499 -9.05921 -5.1703
H 8.5858 -10.0181 -6.32476
O 11.7511 -9.24616 -6.26333
H 11.9166 -8.33404 -6.02488
H 10.8046 -9.35139 -6.16696
O -13.5784 -5.5684 -5.26002
H -13.3596 -4.7855 -5.76543
H -13.5784 -6.27715 -5.90338
O -8.84757 -5.95995 -5.19911
H -7.97919 -6.01431 -5.59809
H -9.20002 -5.12399 -5.50437
O -6.37724 -6.59078 -6.28429
H -6.10783 -6.16002 -7.09552
H -5.62123 -6.50353 -5.70372
O 6.48071 -6.33329 -6.5495
H 7.32307 -6.28511 -6.09745
H 5.94266 -5.66421 -6.12634
O 8.90808 -5.7069 -5.20645
H 9.74823 -6.10101 -5.44111
H 8.98359 -4.79526 -5.48828
O 11.632 -6.49819 -5.55922
H 11.9525 -6.24861 -4.69248
H 11.8235 -5.74129 -6.113
O -12.7758 -3.27796 -6.68781
H -12.8005 -2.32538 -6.59722
H -12.7116 -3.42774 -7.63104
O -10.0205 -3.53776 -6.08794
H -9.89003 -3.00196 -5.30555
H -10.969 -3.5487 -6.21594
O 9.26203 -3.16743 -6.25455
H 10.1967 -3.3675 -6.30588
H 8.96097 -3.19269 -7.16282
O 11.8793 -3.95185 -6.66319
H 11.8753 -3.79414 -7.6073
H 12.6624 -3.50079 -6.34782
O -12.5626 -0.503462 -6.68095
H -11.6963 -0.341746 -6.30744
H -12.443 -0.387417 -7.62354
O -10.0981 0.0663313 -5.66512
H -9.47067 -0.535288 -5.26434
H -9.62536 0.895865 -5.73313
O 9.74519 -0.138725 -6.86377
H 9.44006 -0.981881 -6.52878
H 10.6822 -0.127892 -6.66872
O 12.4778 0.0781481 -6.41627
H 12.5341 -0.0878816 -5.47526
H 12.4851 1.03228 -6.49248
O -13.0376 2.16068 -5.8948
H -12.9851 1.27166 -6.24566
H -12.8724 2.72649 -6.64898
O -8.66133 2.38179 -6.05972
H -7.74633 2.12617 -5.94281
H -8.7486 2.53802 -7.00004
O 9.3505 2.72765 -6.75271
H 9.25553 1.78102 -6.64734
H 9.04773 2.90147 -7.64397
O 12.1158 2.74949 -6.98041
H 12.4195 3.40526 -6.35276
H 11.1621 2.76311 -6.89914
O -12.1194 6.26089 -5.76915
H -11.3143 5.75032 -5.68328
H -12.3295 6.22256 -6.70222
O -9.61981 5.06451 -5.5546
H -9.38743 4.13778 -5.49622
H -9.37237 5.42799 -4.70437
O 5.54718 6.10587 -6.8268
H 6.36429 5.779 -6.45033
H 5.48936 7.01224 -6.52452
O 8.35158 5.39965 -6.35581
H 8.64628 4.49282 -6.27191
H 8.81654 5.8682 -5.66262
O 12.0106 4.74837 -4.90541
H 12.447 5.38518 -4.33952
H 11.0779 4.94026 -4.80801
O -11.3397 8.97414 -5.7146
H -11.5992 8.05986 -5.82864
H -10.3971 8.97858 -5.88079
O -8.6109 9.28998 -6.4765
H -7.69337 9.19088 -6.22244
H -8.79304 10.2223 -6.35917
O -5.9201 9.4762 -5.64291
H -5.01989 9.16973 -5.75209
H -5.89227 10.3984 -5.89795
O -3.29145 9.00753 -6.17982
H -3.5511 8.97388 -7.10051
H -3.13318 9.93595 -6.00888
O -0.551903 8.48038 -6.55476
H -1.46172 8.57512 -6.27282
H -0.0364958 8.67834 -5.77284
O 2.98653 9.45187 -6.49463
H 3.85228 9.2281 -6.15309
H 2.82875 10.3432 -6.18331
O 5.76107 8.88289 -6.27245
H 5.88855 8.99522 -7.21445
H 6.62877 8.65562 -5.93827
O 8.37578 8.6814 -5.77782
H 8.6612 9.53428 -5.45016
H 8.76089 8.619 -6.65191
O 13.3492 9.94972 -6.31764
H 14.2165 10.3453 -6.40524
H 12.7452 10.6922 -6.32265
O -12.1923 11.6017 -6.26009
H -11.961 10.6757 -6.18677
H -12.3928 11.7262 -7.18774
O -9.3353 11.8977 -6.02761
H -9.0632 12.1348 -5.14107
H -10.2807 12.0475 -6.03665
O -5.53362 12.0494 -6.42348
H -4.59588 12.111 -6.24163
H -5.60148 12.1546 -7.37245
O -2.9065 11.6519 -5.60634
H -2.01684 11.9517 -5.79316
H -3.02386 11.817 -4.67081
O -0.259613 12.5195 -5.97681
H 0.675088 12.3625 -6.1107
H -0.317458 12.8858 -5.09437
O 2.52072 12.1293 -6.22745
H 2.94873 12.676 -5.56856
H 2.91164 12.403 -7.05719
O 6.37556 11.6384 -5.91888
H 6.19652 10.7039 -6.02371
H 5.96327 11.8698 -5.08661
O 9.07528 11.4273 -5.45868
H 9.30442 11.6542 -4.55744
H 8.15829 11.6876 -5.54596
O 11.5344 11.9885 -6.38982
H 11.5073 12.1166 -7.33802
H 10.6284 11.7965 -6.14761
O -11.857 -12.187 -2.7301
H -12.2516 -12.0789 -3.59547
H -10.9222 -12.2962 -2.90452
O -9.15533 -12.255 -3.30253
H -9.11798 -12.5555 -4.21059
H -9.20468 -11.3013 -3.36716
O -6.40622 -12.1406 -2.90518
H -6.34176 -12.2419 -1.95554
H -7.32773 -12.3084 -3.10242
O -3.57207 -12.2435 -3.36904
H -3.31699 -12.5268 -4.24708
H -4.52734 -12.3042 -3.36538
O -0.12966 -12.7547 -3.07456
H 0.803218 -12.5866 -2.9415
H -0.503328 -12.745 -2.19336
O 2.61955 -12.2907 -2.82314
H 3.00358 -12.7236 -2.0607
H 2.83669 -11.3655 -2.70846
O 6.66802 -13.277 -3.25287
H 7.51129 -12.9298 -3.54366
H 6.5168 -12.8607 -2.40431
O 8.98974 -11.9728 -4.11004
H 9.85799 -12.2531 -3.8206
H 8.89869 -11.0831 -3.76887
O 11.51 -12.6467 -3.29798
H 11.9618 -12.4124 -4.10873
H 11.8088 -11.9979 -2.66073
O -11.9097 -8.49362 -3.10819
H -11.9498 -7.5462 -2.97779
H -12.4292 -8.85678 -2.39093
O -9.3705 -9.55529 -3.47538
H -9.24401 -9.25323 -4.37482
H -10.2588 -9.27751 -3.25161
O -6.07221 -9.38589 -3.107
H -6.26656 -10.3214 -3.05058
H -5.14944 -9.3472 -3.35844
O -3.4828 -9.55379 -3.85701
H -3.14458 -9.48894 -4.75011
H -3.36742 -10.4747 -3.62298
O 3.38402 -9.6325 -2.88968
H 2.99167 -8.94228 -2.35498
H 3.00823 -9.50421 -3.76063
O 5.96165 -9.16692 -4.17929
H 5.66132 -9.14523 -5.08789
H 5.18232 -9.39922 -3.6744
O 8.55982 -9.19778 -3.17906
H 8.87296 -8.30494 -3.03412
H 7.62452 -9.09821 -3.35663
O 12.6933 -10.8979 -1.4235
H 13.5436 -11.0217 -1.84536
H 12.8611 -10.2628 -0.727288
O -12.5414 -5.81602 -2.73654
H -12.9523 -5.69092 -3.59194
H -12.1254 -4.9755 -2.54492
O -8.88391 -6.9228 -2.56806
H -8.88017 -6.45688 -3.40421
H -8.80924 -7.8465 -2.80771
O 9.58465 -6.60193 -2.64973
H 10.5279 -6.44814 -2.70344
H 9.22683 -6.1724 -3.42671
O 12.3426 -5.76938 -3.0646
H 12.3829 -4.81348 -3.03538
H 13.2181 -6.05461 -2.80318
O -11.6501 -3.33054 -1.8896
H -11.9503 -2.4792 -2.20799
H -12.1663 -3.48655 -1.0987
O -9.88134 -2.03363 -3.7611
H -10.0886 -2.65605 -3.06407
H -10.5136 -1.32436 -3.64534
O 12.7902 -3.03699 -2.73893
H 12.7838 -2.09361 -2.90087
H 12.9355 -3.11769 -1.79627
O -12.4925 -0.818147 -2.66179
H -13.2607 -1.01921 -3.19624
H -12.8516 -0.560254 -1.81281
O 12.2882 -0.152473 -3.6585
H 12.5256 0.772073 -3.58717
H 11.425 -0.210901 -3.24889
O -12.1232 1.98784 -3.16432
H -12.0381 1.03915 -3.06959
H -12.3678 2.11651 -4.08077
O 12.7784 2.56389 -3.59928
H 12.4444 3.30644 -4.10259
H 13.0848 2.94887 -2.77822
O -12.2905 6.21813 -2.96666
H -11.3355 6.20084 -3.02797
H -12.5915 6.02629 -3.85482
O -9.56036 6.53137 -3.10633
H -9.40918 6.37557 -2.17408
H -9.35737 7.45849 -3.23072
O 9.83442 6.52331 -4.20013
H 10.6104 6.62622 -3.64928
H 9.3702 7.35645 -4.11881
O 12.3394 6.63357 -2.86409
H 12.467 6.554 -1.91877
H 12.5907 7.53506 -3.06512
O -11.9676 8.94745 -3.07089
H -11.8537 9.13465 -4.00268
H -12.177 8.01405 -3.03747
O -9.26757 9.36107 -2.955
H -9.12086 10.3069 -2.94583
H -10.22 9.26585 -2.94618
O -6.43271 9.422 -2.90935
H -7.37699 9.27783 -2.84771
H -6.23828 9.34264 -3.84322
O 6.12797 9.20108 -2.80684
H 7.07031 9.15135 -2.96733
H 5.86563 10.0439 -3.17706
O 8.95413 9.03667 -2.73012
H 8.95699 8.90418 -1.78214
H 9.43913 9.85162 -2.86001
O 12.7043 9.22442 -3.73338
H 12.9789 9.40216 -4.63295
H 12.3517 10.0577 -3.42102
O -11.5104 12.1305 -3.48719
H -12.0284 12.1428 -4.29205
H -12.0542 12.5864 -2.84483
O -8.88656 12.0603 -2.87632
H -9.80903 12.1536 -3.11419
H -8.87598 12.1355 -1.92213
O -5.94319 12.1491 -2.87099
H -6.81055 12.4438 -3.14856
H -6.00955 11.1944 -2.84978
O -3.13024 12.2157 -2.88831
H -4.07294 12.3559 -2.97713
H -3.00352 12.017 -1.96057
O -0.355678 12.902 -3.11323
H -0.162471 13.3957 -2.31626
H -1.29366 12.7186 -3.06046
O 2.49578 12.1037 -3.01646
H 2.57424 12.1098 -2.0625
H 1.56698 12.2655 -3.18191
O 5.28597 11.7692 -3.38328
H 4.3387 11.8538 -3.27487
H 5.65553 12.2162 -2.62181
O 10.0845 11.573 -2.89719
H 10.7869 12.201 -3.06563
H 9.82659 11.7389 -1.99043
O 12.1614 13.1085 -3.8913
H 12.0767 12.8924 -4.81995
H 12.2223 14.0635 -3.87169
O -11.8702 -12.5168 0.174104
H -10.9138 -12.5558 0.173092
H -12.1103 -12.4898 -0.752109
O -9.03877 -12.0962 -0.345625
H -9.13014 -12.2594 -1.28436
H -8.10191 -12.1935 -0.175172
O -6.24094 -12.0736 -0.134582
H -5.3774 -12.4808 -0.0654042
H -6.06951 -11.1343 -0.0669906
O -3.51068 -12.7141 -0.536836
H -2.62666 -12.9472 -0.253238
H -3.44875 -12.6536 -1.49011
O -0.78446 -13.2426 0.017418
H -0.432201 -14.1307 0.0761778
H -0.67529 -12.8824 0.897516
O 3.79714 -13.3063 -0.549091
H 4.72838 -13.0852 -0.560141
H 3.48272 -12.979 0.293647
O 6.49713 -12.3906 -0.707522
H 7.33836 -12.5808 -0.292328
H 6.26827 -11.5149 -0.395981
O 8.89845 -12.2853 0.648235
H 9.73407 -12.6342 0.337958
H 8.9106 -11.3647 0.3863
O 11.5162 -13.0463 0.0642
H 12.0005 -12.4055 -0.456443
H 11.8478 -12.9318 0.954804
O -13.1655 -9.39171 0.520007
H -13.0051 -8.48921 0.244312
H -12.3066 -9.81205 0.476749
O -10.2459 -9.66796 0.652648
H -9.80948 -10.4375 0.287283
H -9.76554 -9.47983 1.45892
O -5.62535 -9.36136 -0.27344
H -4.67118 -9.37185 -0.348732
H -5.93326 -9.14778 -1.15424
O 6.24768 -9.9715 0.400289
H 6.25245 -9.89749 1.35461
H 7.15209 -9.79478 0.14135
O 8.8642 -9.69811 -0.42211
H 9.28539 -8.88968 -0.13009
H 8.79835 -9.60467 -1.37246
O 13.6147 -9.17977 0.536613
H 13.1826 -9.42719 1.35412
H 14.5365 -9.39538 0.677622
O -12.513 -6.80429 -0.120899
H -11.5581 -6.8713 -0.113751
H -12.7173 -6.37665 -0.952521
O -9.81726 -7.03596 -0.00663802
H -9.92677 -7.98099 0.0990552
H -9.4429 -6.93413 -0.88169
O 9.84951 -7.18267 0.213858
H 10.7749 -6.95817 0.310894
H 9.61171 -6.85137 -0.652124
O 12.531 -6.50471 0.650233
H 12.9983 -7.33715 0.580285
H 12.4516 -6.35244 1.5919
O -13.5475 -3.6563 0.162237
H -14.487 -3.66058 -0.0209123
H -13.4872 -3.49164 1.10324
O 13.2702 -3.81058 0.00127634
H 12.9624 -3.36912 0.792843
H 13.0145 -4.72509 0.121625
O -13.6363 0.237737 -0.287176
H -13.2046 0.00492986 0.534824
H -13.4909 1.17962 -0.376256
O 13.5265 0.927854 -0.0156162
H 13.5165 1.84478 -0.290157
H 14.3756 0.598414 -0.310098
O -13.4663 2.90691 -0.877712
H -13.0452 2.69382 -1.71046
H -13.0122 3.69261 -0.573263
O 13.7158 3.62097 -1.04755
H 13.5218 4.49926 -0.720132
H 14.6718 3.57444 -1.05794
O -12.269 5.47059 -0.354666
H -11.3276 5.63416 -0.297981
H -12.5022 5.71841 -1.24934
O -9.63954 6.2391 -0.280686
H -9.6783 7.17598 -0.0883934
H -9.11957 5.869 0.432673
O 9.75077 6.52353 0.643488
H 10.5876 6.42263 0.189786
H 9.30564 7.22779 0.172206
O 12.5078 6.30923 0.00919027
H 12.4884 6.1263 0.948547
H 12.5102 7.26464 -0.0492495
O -12.1033 10.0408 -0.518646
H -12.0942 9.77611 -1.43849
H -12.8677 9.59853 -0.14929
O -9.63228 8.90532 0.367273
H -8.8254 9.35961 0.124784
H -10.3329 9.46964 0.040378
O -6.87333 9.92225 0.456965
H -6.56343 9.89769 1.36228
H -6.2658 9.35695 -0.0200843
O 5.81635 9.74409 -0.169898
H 5.46289 10.6333 -0.19469
H 5.75072 9.43448 -1.07326
O 8.42823 9.08341 0.0292628
H 7.49274 9.24208 -0.0968686
H 8.53512 9.02035 0.978383
O 12.2571 9.04364 0.207041
H 12.2226 9.95818 -0.0734123
H 12.4062 9.08773 1.15153
O -11.9959 12.7884 -0.654576
H -12.3054 13.1801 0.162146
H -12.1185 11.8472 -0.530937
O -9.42349 12.1113 -0.119902
H -9.33628 12.1979 0.829383
H -10.2827 12.4844 -0.316947
O -5.71756 12.443 -0.111125
H -5.83234 12.5583 -1.05441
H -6.21786 11.6539 0.0968972
O -2.95377 12.0129 -0.0315322
H -2.80719 11.8469 0.899696
H -3.88861 12.2081 -0.096258
O -0.177094 13.0194 0.230655
H -0.15256 13.0174 1.18754
H -1.06765 12.7443 0.0128533
O 2.47854 12.121 -0.251477
H 2.92308 12.2319 0.58895
H 1.57328 12.3807 -0.0802442
O 6.60857 12.8573 -1.08072
H 6.54598 13.7791 -1.331
H 7.54854 12.6779 -1.05873
O 9.21666 11.7061 -0.303254
H 8.97617 10.7814 -0.246045
H 10.1637 11.7168 -0.164308
O 11.926 11.8488 -0.0470915
H 12.4372 12.5512 -0.449122
H 12.0206 11.992 0.89461
O -12.5842 -11.9267 3.04757
H -12.4343 -12.2323 2.15296
H -12.8406 -11.0098 2.94812
O -8.09883 -12.7574 3.65362
H -7.28982 -13.2554 3.53658
H -8.51988 -12.7781 2.79425
O -5.64659 -14.2766 3.53409
H -5.76428 -14.0159 4.44755
H -4.93637 -13.7197 3.21518
O -3.52103 -12.5175 3.24461
H -3.8044 -11.6127 3.11327
H -3.36511 -12.5858 4.18655
O -0.803741 -12.293 2.76538
H -0.49419 -12.4937 3.64862
H -1.75711 -12.3538 2.8256
O 3.30031 -12.6919 3.94433
H 2.83128 -11.8982 3.68677
H 3.28901 -12.6774 4.90135
O 6.00404 -13.2055 3.95388
H 5.07418 -13.0799 3.76466
H 6.43648 -13.1117 3.1051
O 9.51189 -12.9995 3.28721
H 10.4593 -12.8787 3.2237
H 9.17717 -12.7246 2.43361
O 12.2548 -12.4255 2.65484
H 12.1487 -11.4758 2.71023
H 12.8831 -12.6374 3.34518
O -13.2081 -8.51249 3.13902
H -13.1861 -8.8505 2.24375
H -13.0425 -7.57437 3.04548
O -8.89976 -8.57577 2.84735
H -8.96564 -8.7694 3.78244
H -9.1728 -7.66145 2.77178
O -6.2 -8.35021 2.32229
H -6.03652 -8.64825 1.42748
H -7.13747 -8.4911 2.45466
O -4.32464 -9.82533 3.69273
H -4.88644 -10.013 4.44465
H -4.83993 -9.22717 3.15152
O 1.80729 -10.4775 3.36696
H 1.5505 -9.87317 4.06342
H 0.980621 -10.8336 3.04132
O 6.60299 -9.32434 3.0805
H 6.44867 -8.4408 2.74618
H 7.55545 -9.39311 3.14624
O 9.31592 -9.26215 3.27098
H 9.26442 -9.27757 4.22667
H 9.40366 -8.33488 3.05031
O 11.9519 -9.76684 2.83669
H 12.265 -9.44683 3.68275
H 10.9991 -9.69174 2.88936
O -12.4357 -5.83227 2.58641
H -12.5889 -5.92862 1.64648
H -12.6411 -4.91563 2.77034
O -9.63719 -5.89988 2.49941
H -10.5794 -5.88428 2.6675
H -9.56164 -6.15531 1.58001
O 9.37268 -6.55891 2.88539
H 9.35328 -6.62176 1.93045
H 10.2779 -6.32635 3.09226
O 11.9659 -5.90761 3.28145
H 11.9766 -4.95726 3.16762
H 12.2205 -6.04288 4.19419
O -12.9354 -3.06512 2.96317
H -12.6201 -2.20765 2.67767
H -12.8975 -3.02876 3.91892
O -9.14404 -3.09908 3.05786
H -8.19653 -3.16454 3.17685
H -9.42304 -3.99253 2.8575
O 11.9694 -3.16446 3.04576
H 12.071 -2.26711 2.72849
H 12.0754 -3.09696 3.99467
O -12.1587 -0.551902 1.98531
H -11.2638 -0.770651 1.72528
H -12.0573 0.153908 2.62389
O 12.7481 -0.652742 2.16079
H 13.6003 -0.628924 2.59594
H 12.8625 -0.112209 1.37915
O -11.7342 1.3068 4.02507
H -11.1013 0.803509 4.53738
H -12.1895 1.84755 4.67041
O 12.9126 3.71556 3.75225
H 12.8167 4.61504 3.43925
H 12.8378 3.17787 2.96387
O -12.497 6.26506 2.40952
H -12.5284 6.02292 1.48398
H -13.0577 5.62282 2.84476
O -9.75565 6.5102 3.30317
H -9.76663 6.22266 4.2161
H -10.6554 6.38515 3.00134
O 9.67155 6.59223 3.34031
H 9.611 6.48062 2.39157
H 9.16006 5.86766 3.70033
O 12.3816 6.37478 2.79191
H 12.6901 7.27928 2.84598
H 11.4534 6.42377 3.0204
O -12.0352 8.92503 3.31417
H -12.2805 8.0837 2.92916