TIP4P/2005 Water + Nanoparticle System
# Generated for LAMMPS with molecule template and SHAKE

408 atoms

5 atom types  # NP types + O,H,M

-20.000000 20.000000 xlo xhi
-20.000000 20.000000 ylo yhi
-20.000000 20.000000 zlo zhi

Masses

1 28.0855  # NP
2 12.0107  # NP
3 15.9994  # O (water)
4 1.0080  # H (water)
5 0.0001  # M (virtual site)

Atoms  # full

1 1 1 0.000000 0.000000 0.000000 0.000000
2 1 1 0.000000 0.000000 2.179000 2.179000
3 1 1 0.000000 2.179000 0.000000 2.179000
4 1 1 0.000000 2.179000 2.179000 0.000000
5 1 2 0.000000 1.089500 1.089500 1.089500
6 1 2 0.000000 3.268500 1.089500 3.268500
7 1 2 0.000000 3.268500 3.268500 1.089500
8 1 2 0.000000 1.089500 3.268500 3.268500
9 2 3 0.000000 2.274180 1.634250 15.932792
10 2 4 0.556400 2.190578 2.132755 15.119936
11 2 4 0.556400 1.374889 1.405238 16.167440
12 2 5 -1.112800 2.144499 1.669806 15.856505
13 3 3 0.000000 1.151878 1.192357 10.060671
14 3 4 0.556400 1.577380 0.615323 10.694872
15 3 4 0.556400 0.217187 1.108408 10.249186
16 3 5 -1.112800 1.084696 1.105149 10.169218
17 4 3 0.000000 2.064947 1.072482 7.585407
18 4 4 0.556400 2.076476 0.676675 8.456863
19 4 4 0.556400 1.668809 1.933687 7.718199
20 4 5 -1.112800 2.014203 1.133886 7.717905
21 5 3 0.000000 -0.480707 2.008356 17.534668
22 5 4 0.556400 -0.338224 2.799859 18.053756
23 5 4 0.556400 -1.068967 1.474077 18.068267
24 5 5 -1.112800 -0.539522 2.042294 17.673557
25 6 3 0.000000 0.900497 -1.095275 18.991646
26 6 4 0.556400 0.259165 -0.528451 18.563119
27 6 4 0.556400 1.744250 -0.812441 18.639059
28 6 5 -1.112800 0.927204 -0.983173 18.888588
29 7 3 0.000000 -0.928547 3.119443 14.631248
30 7 4 0.556400 -1.876859 3.217726 14.716545
31 7 4 0.556400 -0.667440 2.626460 15.409080
32 7 5 -1.112800 -1.019215 3.067367 14.745127
33 8 3 0.000000 5.171557 2.411917 16.902517
34 8 4 0.556400 4.254933 2.185840 16.744647
35 8 4 0.556400 5.209826 3.360146 16.777504
36 8 5 -1.112800 5.055669 2.507196 16.865194
37 9 3 0.000000 -0.184170 -0.952265 14.475446
38 9 4 0.556400 -0.761707 -0.356622 13.998064
39 9 4 0.556400 -0.473055 -1.826846 14.214898
40 9 5 -1.112800 -0.298483 -0.989067 14.378085
41 10 3 0.000000 1.238207 4.690484 13.721368
42 10 4 0.556400 1.155910 4.697432 14.674999
43 10 4 0.556400 0.346146 4.548808 13.404531
44 10 5 -1.112800 1.109653 4.672708 13.805385
45 11 3 0.000000 5.063199 -1.255672 18.654513
46 11 4 0.556400 5.723663 -0.752375 19.130655
47 11 4 0.556400 5.517187 -1.567047 17.871460
48 11 5 -1.112800 5.210238 -1.230350 18.614020
49 12 3 0.000000 4.041014 4.029302 13.766939
50 12 4 0.556400 3.104996 4.194989 13.879411
51 12 4 0.556400 4.368240 3.888379 14.655362
52 12 5 -1.112800 3.960691 4.032569 13.898995
53 13 3 0.000000 0.191464 3.363190 9.254173
54 13 4 0.556400 -0.149891 2.837804 9.977829
55 13 4 0.556400 -0.578655 3.800456 8.890926
56 13 5 -1.112800 0.044818 3.351564 9.301724
57 14 3 0.000000 6.687393 0.954357 18.454787
58 14 4 0.556400 6.666767 1.091500 17.507687
59 14 4 0.556400 5.901591 0.440111 18.639983
60 14 5 -1.112800 6.580995 0.904603 18.354263
61 15 3 0.000000 -2.157105 -1.003676 16.505586
62 15 4 0.556400 -2.826099 -0.799980 15.851990
63 15 4 0.556400 -1.629443 -0.207275 16.565159
64 15 5 -1.112800 -2.175752 -0.871726 16.427212
65 16 3 0.000000 3.608794 -1.811592 13.849608
66 16 4 0.556400 3.926169 -1.207604 14.520952
67 16 4 0.556400 4.333651 -2.421802 13.713749
68 16 5 -1.112800 3.746304 -1.812413 13.920259
69 17 3 0.000000 3.428578 4.424842 10.533210
70 17 4 0.556400 2.581117 4.140414 10.190947
71 17 4 0.556400 4.051685 3.780841 10.196710
72 17 5 -1.112800 3.398977 4.302347 10.443656
73 18 3 0.000000 5.355107 1.942515 11.156998
74 18 4 0.556400 6.001345 2.146182 10.480886
75 18 4 0.556400 5.300636 2.739258 11.684698
76 18 5 -1.112800 5.433183 2.074507 11.137417
77 19 3 0.000000 3.774180 -0.724711 9.387794
78 19 4 0.556400 4.217970 0.067289 9.691141
79 19 4 0.556400 3.138398 -0.411993 8.744194
80 19 5 -1.112800 3.748849 -0.578957 9.342902
81 20 3 0.000000 -2.897640 2.054265 12.551248
82 20 4 0.556400 -2.395784 2.531286 13.212175
83 20 4 0.556400 -2.249245 1.800719 11.894338
84 20 5 -1.112800 -2.745878 2.083749 12.551778
85 21 3 0.000000 0.798936 -2.957376 12.512831
86 21 4 0.556400 0.192117 -3.519830 12.031531
87 21 4 0.556400 0.234514 -2.378230 13.024933
88 21 5 -1.112800 0.644405 -2.955174 12.516895
89 22 3 0.000000 -1.380871 0.086939 9.218656
90 22 4 0.556400 -1.361663 0.308405 8.287627
91 22 4 0.556400 -0.504523 0.305692 9.535505
92 22 5 -1.112800 -1.262714 0.145021 9.137622
93 23 3 0.000000 2.642934 4.355001 8.044091
94 23 4 0.556400 2.454943 5.284047 7.910805
95 23 4 0.556400 2.587661 3.971016 7.169029
96 23 5 -1.112800 2.610838 4.426915 7.911052
97 24 3 0.000000 0.747056 5.765758 10.410600
98 24 4 0.556400 1.584813 6.054235 10.772782
99 24 4 0.556400 0.304246 5.336397 11.142583
100 24 5 -1.112800 0.799164 5.747170 10.554961
101 25 3 0.000000 7.245013 -2.351373 15.761876
102 25 4 0.556400 7.447617 -1.431921 15.589273
103 25 4 0.556400 8.018378 -2.828189 15.460571
104 25 5 -1.112800 7.373780 -2.292973 15.699350
105 26 3 0.000000 -4.805718 0.831649 14.803794
106 26 4 0.556400 -5.131247 -0.066404 14.742443
107 26 4 0.556400 -5.458924 1.287985 15.334182
108 26 5 -1.112800 -4.934850 0.773370 14.865677
109 27 3 0.000000 6.089248 6.868164 15.424836
110 27 4 0.556400 6.950097 6.455391 15.494041
111 27 4 0.556400 5.469026 6.160818 15.601523
112 27 5 -1.112800 6.120996 6.720378 15.457278
113 28 3 0.000000 1.879813 -5.099500 15.004202
114 28 4 0.556400 1.482930 -4.913284 15.855107
115 28 4 0.556400 1.574642 -5.979755 14.784536
116 28 5 -1.112800 1.787185 -5.191070 15.087487
117 29 3 0.000000 -2.612388 5.943497 13.507792
118 29 4 0.556400 -3.449116 5.562670 13.241165
119 29 4 0.556400 -2.321425 6.442013 12.744212
120 29 5 -1.112800 -2.684395 5.959025 13.371869
121 30 3 0.000000 9.131069 1.250933 16.207899
122 30 4 0.556400 9.404097 1.727343 16.991941
123 30 4 0.556400 8.668814 0.482551 16.542775
124 30 5 -1.112800 9.106103 1.212411 16.355527
125 31 3 0.000000 -2.567055 -1.837078 12.102753
126 31 4 0.556400 -2.557106 -1.026177 11.594251
127 31 4 0.556400 -2.056651 -1.634915 12.886876
128 31 5 -1.112800 -2.498401 -1.703416 12.139117
129 32 3 0.000000 5.684718 -4.248283 15.070322
130 32 4 0.556400 5.095229 -3.508003 15.214269
131 32 4 0.556400 6.562380 -3.869812 15.122299
132 32 5 -1.112800 5.722739 -4.100677 15.096172
133 33 3 0.000000 -6.410554 3.485340 17.006106
134 33 4 0.556400 -6.212478 4.000118 16.223800
135 33 4 0.556400 -5.792700 2.754893 16.975529
136 33 5 -1.112800 -6.302902 3.456885 16.898856
137 34 3 0.000000 -1.866318 9.308932 16.880193
138 34 4 0.556400 -2.242264 9.091500 16.027186
139 34 4 0.556400 -1.159760 9.923358 16.681475
140 34 5 -1.112800 -1.822698 9.361311 16.741430
141 35 3 0.000000 7.253447 -0.749700 12.560138
142 35 4 0.556400 6.698689 -1.052833 11.841399
143 35 4 0.556400 7.782276 -1.512704 12.793373
144 35 5 -1.112800 7.250026 -0.890364 12.496082
145 36 3 0.000000 4.720856 7.438172 13.179010
146 36 4 0.556400 5.616018 7.648807 13.444620
147 36 4 0.556400 4.759400 6.519565 12.912725
148 36 5 -1.112800 4.844047 7.344764 13.178921
149 37 3 0.000000 -5.432304 6.226865 16.162908
150 37 4 0.556400 -5.877142 6.609590 15.406686
151 37 4 0.556400 -5.903934 5.411109 16.331250
152 37 5 -1.112800 -5.553220 6.169732 16.085344
153 38 3 0.000000 4.590859 2.127534 6.754603
154 38 4 0.556400 4.990104 2.727764 7.384332
155 38 4 0.556400 4.464410 1.314972 7.244486
156 38 5 -1.112800 4.626851 2.099519 6.902322
157 39 3 0.000000 -2.899910 -4.161758 14.091756
158 39 4 0.556400 -2.354567 -4.868819 13.746940
159 39 4 0.556400 -2.488221 -3.924579 14.922713
160 39 5 -1.112800 -2.773641 -4.223754 14.155896
161 40 3 0.000000 1.042474 9.227150 14.412360
162 40 4 0.556400 1.222951 8.787341 13.581561
163 40 4 0.556400 0.601278 10.039221 14.163123
164 40 5 -1.112800 1.008075 9.276265 14.269863
165 41 3 0.000000 1.330773 -1.475074 6.696668
166 41 4 0.556400 2.010572 -0.916836 6.319209
167 41 4 0.556400 0.853469 -1.816613 5.940517
168 41 5 -1.112800 1.357490 -1.446483 6.547102
169 42 3 0.000000 4.241006 -3.506917 10.594387
170 42 4 0.556400 4.319134 -4.405938 10.275186
171 42 4 0.556400 4.146267 -2.978305 9.802033
172 42 5 -1.112800 4.238814 -3.555788 10.447731
173 43 3 0.000000 -1.785306 2.921016 7.267832
174 43 4 0.556400 -1.285232 2.106051 7.223220
175 43 4 0.556400 -1.158698 3.569849 7.588160
176 43 5 -1.112800 -1.636654 2.899097 7.304210
177 44 3 0.000000 -2.345003 -6.657476 15.590821
178 44 4 0.556400 -1.964765 -6.347129 14.769034
179 44 4 0.556400 -3.126682 -6.118519 15.712211
180 44 5 -1.112800 -2.397969 -6.545421 15.498412
181 45 3 0.000000 -0.425401 8.432301 12.328750
182 45 4 0.556400 -0.711168 9.130809 11.739976
183 45 4 0.556400 0.518818 8.563091 12.415790
184 45 5 -1.112800 -0.338526 8.541717 12.262553
185 46 3 0.000000 9.991965 -3.318768 16.147417
186 46 4 0.556400 10.676956 -3.014583 16.742808
187 46 4 0.556400 9.423057 -3.861454 16.693373
188 46 5 -1.112800 10.007281 -3.350235 16.298004
189 47 3 0.000000 -7.722607 -0.327327 15.805863
190 47 4 0.556400 -7.906490 -0.655141 16.686179
191 47 4 0.556400 -6.975369 0.259962 15.919697
192 47 5 -1.112800 -7.648279 -0.293093 15.937029
193 48 3 0.000000 2.759830 -7.770901 15.462185
194 48 4 0.556400 3.273040 -8.411726 15.954314
195 48 4 0.556400 2.032343 -8.274994 15.097650
196 48 5 -1.112800 2.731559 -7.921959 15.479019
197 49 3 0.000000 7.919579 1.832763 10.677118
198 49 4 0.556400 8.383378 2.191834 11.433551
199 49 4 0.556400 7.147058 2.389994 10.582585
200 49 5 -1.112800 7.878847 1.953658 10.764448
201 50 3 0.000000 8.952729 6.620999 13.910501
202 50 4 0.556400 8.214311 6.958319 14.417635
203 50 4 0.556400 9.711518 6.743272 14.481045
204 50 5 -1.112800 8.955417 6.681636 14.052687
205 51 3 0.000000 -3.941732 -0.876274 9.873493
206 51 4 0.556400 -2.987589 -0.809660 9.836017
207 51 4 0.556400 -4.211392 -0.147687 10.432668
208 51 5 -1.112800 -3.851423 -0.771357 9.942325
209 52 3 0.000000 3.814625 6.704661 9.019007
210 52 4 0.556400 3.669759 6.075162 9.725390
211 52 4 0.556400 4.760728 6.849985 9.017341
212 52 5 -1.112800 3.920338 6.640780 9.111986
213 53 3 0.000000 -5.846657 5.659637 12.844304
214 53 4 0.556400 -5.480575 5.400832 13.690021
215 53 4 0.556400 -5.190773 5.383339 12.204220
216 53 5 -1.112800 -5.711821 5.589037 12.871435
217 54 3 0.000000 -1.048240 -2.449498 7.994133
218 54 4 0.556400 -1.767749 -2.041741 8.476080
219 54 4 0.556400 -0.260358 -2.181701 8.467164
220 54 5 -1.112800 -1.039219 -2.360367 8.120131
221 55 3 0.000000 6.974505 -2.585534 10.374782
222 55 4 0.556400 6.997129 -2.267843 9.472123
223 55 4 0.556400 7.875896 -2.849816 10.558847
224 55 5 -1.112800 7.096417 -2.578487 10.279972
225 56 3 0.000000 7.162455 7.494333 11.842684
226 56 4 0.556400 6.391745 7.172100 11.375346
227 56 4 0.556400 7.315456 8.366945 11.480231
228 56 5 -1.112800 7.080956 7.566949 11.733203
229 57 3 0.000000 1.506408 -7.100537 12.630764
230 57 4 0.556400 2.457131 -7.101437 12.741924
231 57 4 0.556400 1.166477 -7.413527 13.469045
232 57 5 -1.112800 1.586995 -7.141951 12.756031
233 58 3 0.000000 -5.167273 -3.424045 12.096604
234 58 4 0.556400 -5.143340 -2.495678 11.864667
235 58 4 0.556400 -4.886261 -3.877314 11.301738
236 58 5 -1.112800 -5.127040 -3.361361 11.961130
237 59 3 0.000000 -8.790892 4.600999 14.756820
238 59 4 0.556400 -9.221562 3.780886 14.515638
239 59 4 0.556400 -9.123761 5.240942 14.127612
240 59 5 -1.112800 -8.891632 4.577228 14.641983
241 60 3 0.000000 -1.832428 -7.443784 13.250095
242 60 4 0.556400 -0.929806 -7.746521 13.349363
243 60 4 0.556400 -1.751781 -6.569694 12.868395
244 60 5 -1.112800 -1.702698 -7.368401 13.212832
245 61 3 0.000000 0.044077 5.652287 6.767180
246 61 4 0.556400 0.493458 6.200043 7.410805
247 61 4 0.556400 -0.543204 6.253312 6.308811
248 61 5 -1.112800 0.025883 5.803855 6.791622
249 62 3 0.000000 10.503638 -2.675585 13.274124
250 62 4 0.556400 10.198561 -3.570907 13.420951
251 62 4 0.556400 11.448058 -2.762086 13.144436
252 62 5 -1.112800 10.587991 -2.805124 13.276385
253 63 3 0.000000 1.321215 13.357961 14.892003
254 63 4 0.556400 1.572021 12.470492 15.148373
255 63 4 0.556400 0.403447 13.282014 14.630916
256 63 5 -1.112800 1.233217 13.230850 14.891381
257 64 3 0.000000 -8.314436 2.240304 12.765874
258 64 4 0.556400 -8.050454 1.433055 13.207343
259 64 4 0.556400 -8.500523 1.971949 11.866102
260 64 5 -1.112800 -8.304159 2.098391 12.705407
261 65 3 0.000000 4.900971 11.379009 12.709317
262 65 4 0.556400 5.849990 11.464809 12.800046
263 65 4 0.556400 4.621174 12.207686 12.320422
264 65 5 -1.112800 4.989266 11.499663 12.669978
265 66 3 0.000000 6.285751 -8.833040 13.904704
266 66 4 0.556400 6.372379 -9.441460 14.638566
267 66 4 0.556400 6.038957 -8.001746 14.310012
268 66 5 -1.112800 6.264619 -8.803635 14.055004
269 67 3 0.000000 7.850503 3.767895 8.592818
270 67 4 0.556400 8.801550 3.734424 8.695885
271 67 4 0.556400 7.638758 4.700958 8.620901
272 67 5 -1.112800 7.948045 3.886585 8.610122
273 68 3 0.000000 -0.889939 11.812266 12.608633
274 68 4 0.556400 -0.150210 11.691443 12.013289
275 68 4 0.556400 -1.600712 11.307109 12.213854
276 68 5 -1.112800 -0.886119 11.729675 12.477999
277 69 3 0.000000 6.618139 -1.674431 7.858721
278 69 4 0.556400 6.405929 -1.754970 8.788620
279 69 4 0.556400 7.564087 -1.529283 7.840132
280 69 5 -1.112800 6.714947 -1.665907 7.978957
281 70 3 0.000000 -10.535113 -0.274258 14.377547
282 70 4 0.556400 -10.159258 -0.321093 15.256621
283 70 4 0.556400 -9.791524 -0.074209 13.808963
284 70 5 -1.112800 -10.387416 -0.254043 14.418513
285 71 3 0.000000 -6.107703 9.009456 12.507337
286 71 4 0.556400 -5.632770 9.396700 13.242668
287 71 4 0.556400 -5.422625 8.673398 11.929440
288 71 5 -1.112800 -5.954654 9.016209 12.528108
289 72 3 0.000000 -5.882739 3.115713 9.207604
290 72 4 0.556400 -6.159609 3.910432 9.663670
291 72 4 0.556400 -6.573620 2.954768 8.564944
292 72 5 -1.112800 -6.010422 3.199331 9.182985
293 73 3 0.000000 9.552663 6.456893 10.747564
294 73 4 0.556400 9.868155 7.224546 11.224435
295 73 4 0.556400 9.876594 5.710927 11.252375
296 73 5 -1.112800 9.637027 6.459755 10.877085
297 74 3 0.000000 -1.902903 -10.568843 14.053210
298 74 4 0.556400 -1.569258 -9.707757 14.305090
299 74 4 0.556400 -2.128604 -10.990678 14.882274
300 74 5 -1.112800 -1.888661 -10.510889 14.195828
301 75 3 0.000000 -8.283416 -2.234900 11.867388
302 75 4 0.556400 -7.681418 -1.497037 11.770493
303 75 4 0.556400 -8.170779 -2.519005 12.774487
304 75 5 -1.112800 -8.189129 -2.175032 11.974285
305 76 3 0.000000 3.322318 -4.139776 7.353146
306 76 4 0.556400 2.721293 -3.755262 7.991229
307 76 4 0.556400 4.045318 -4.480800 7.879650
308 76 5 -1.112800 3.338411 -4.134038 7.506799
309 77 3 0.000000 -8.289043 7.646659 12.603656
310 77 4 0.556400 -9.170436 8.019556 12.621727
311 77 4 0.556400 -8.050747 7.549198 13.525583
312 77 5 -1.112800 -8.373892 7.683000 12.727677
313 78 3 0.000000 13.532474 4.007656 13.041748
314 78 4 0.556400 14.433251 4.276896 12.861907
315 78 4 0.556400 13.168750 4.721350 13.565751
316 78 5 -1.112800 13.603331 4.137342 13.087156
317 79 3 0.000000 -3.667778 -5.602968 10.023378
318 79 4 0.556400 -4.424531 -5.118485 9.693479
319 79 4 0.556400 -2.912145 -5.082433 9.750808
320 79 5 -1.112800 -3.667926 -5.470368 9.943890
321 80 3 0.000000 0.901952 8.304123 7.874290
322 80 4 0.556400 0.857964 7.369536 7.672191
323 80 4 0.556400 1.256910 8.704806 7.080760
324 80 5 -1.112800 0.942981 8.233681 7.742929
325 81 3 0.000000 6.327052 6.125410 7.576822
326 81 4 0.556400 6.092724 5.323440 7.109740
327 81 4 0.556400 7.284188 6.125750 7.587869
328 81 5 -1.112800 6.422418 6.019645 7.516654
329 82 3 0.000000 0.774818 -11.423882 13.541538
330 82 4 0.556400 1.051336 -11.946241 12.788603
331 82 4 0.556400 1.477553 -10.785145 13.661582
332 82 5 -1.112800 0.904018 -11.408527 13.458036
333 83 3 0.000000 12.687651 -0.073167 11.701257
334 83 4 0.556400 12.794518 0.750264 12.177464
335 83 4 0.556400 12.076237 -0.581170 12.234491
336 83 5 -1.112800 12.621082 -0.031550 11.834440
337 84 3 0.000000 2.755218 6.199185 5.819690
338 84 4 0.556400 2.135221 5.469941 5.813515
339 84 4 0.556400 2.321520 6.878544 6.336033
340 84 5 -1.112800 2.616196 6.192603 5.887001
341 85 3 0.000000 6.375587 -7.027545 10.379461
342 85 4 0.556400 6.472474 -6.079874 10.473082
343 85 4 0.556400 5.611909 -7.135872 9.812634
344 85 5 -1.112800 6.287612 -6.916804 10.317027
345 86 3 0.000000 13.119437 -4.691061 12.939341
346 86 4 0.556400 13.959987 -5.028781 13.248617
347 86 4 0.556400 13.093451 -3.787419 13.253962
348 86 5 -1.112800 13.226909 -4.616395 13.021656
349 87 3 0.000000 -7.400578 -0.559695 9.607876
350 87 4 0.556400 -7.624533 -0.177384 10.456354
351 87 4 0.556400 -6.534801 -0.946054 9.739747
352 87 5 -1.112800 -7.315897 -0.560229 9.737221
353 88 3 0.000000 6.660230 9.125353 9.329662
354 88 4 0.556400 6.031036 9.842176 9.410355
355 88 4 0.556400 6.731173 8.767539 10.214630
356 88 5 -1.112800 6.586575 9.172720 9.457069
357 89 3 0.000000 3.021220 -7.500503 9.474252
358 89 4 0.556400 2.199088 -7.023678 9.360369
359 89 4 0.556400 3.655161 -6.829052 9.726250
360 89 5 -1.112800 2.996390 -7.349002 9.492474
361 90 3 0.000000 -3.200030 5.531435 6.875340
362 90 4 0.556400 -3.166512 6.437409 6.568226
363 90 4 0.556400 -3.860585 5.114722 6.321941
364 90 5 -1.112800 -3.282760 5.595987 6.761806
365 91 3 0.000000 -4.451022 2.318227 6.667802
366 91 4 0.556400 -5.136956 2.124071 7.306574
367 91 4 0.556400 -4.919601 2.676280 5.913837
368 91 5 -1.112800 -4.603346 2.339851 6.652604
369 92 3 0.000000 12.603307 9.626920 12.731770
370 92 4 0.556400 13.262548 9.620874 13.425741
371 92 4 0.556400 12.389620 8.703851 12.595705
372 92 5 -1.112800 12.662093 9.504335 12.805379
373 93 3 0.000000 0.486657 -4.042556 6.345008
374 93 4 0.556400 1.049475 -3.984817 5.572911
375 93 4 0.556400 -0.146724 -4.727154 6.129633
376 93 5 -1.112800 0.477348 -4.125263 6.214723
377 94 3 0.000000 -3.038672 9.391765 8.961659
378 94 4 0.556400 -2.093700 9.274687 9.059396
379 94 4 0.556400 -3.180412 9.419897 8.015429
380 94 5 -1.112800 -2.932696 9.380030 8.849711
381 95 3 0.000000 6.296276 0.258240 5.546547
382 95 4 0.556400 6.863383 -0.511652 5.503103
383 95 4 0.556400 5.798104 0.143989 6.355870
384 95 5 -1.112800 6.305371 0.141588 5.647595
385 96 3 0.000000 -10.880811 7.867259 12.653518
386 96 4 0.556400 -10.367088 7.860630 13.461154
387 96 4 0.556400 -11.133051 8.783251 12.537052
388 96 5 -1.112800 -10.846312 7.987238 12.744709
389 97 3 0.000000 12.202043 4.667923 10.254315
390 97 4 0.556400 11.381983 4.837125 10.718108
391 97 4 0.556400 11.955321 4.649071 9.329651
392 97 5 -1.112800 12.061294 4.687760 10.193509
393 98 3 0.000000 -5.150802 -9.441984 11.765001
394 98 4 0.556400 -4.754344 -10.020520 11.113580
395 98 4 0.556400 -5.110494 -8.571454 11.369040
396 98 5 -1.112800 -5.093176 -9.403459 11.626812
397 99 3 0.000000 10.932262 -5.247480 10.562471
398 99 4 0.556400 10.613879 -5.885676 11.200883
399 99 4 0.556400 10.228789 -4.601623 10.497456
400 99 5 -1.112800 10.797440 -5.246470 10.638124
401 100 3 0.000000 1.848653 -11.022556 11.252714
402 100 4 0.556400 2.304815 -10.270864 10.874419
403 100 4 0.556400 2.325415 -11.783874 10.922072
404 100 5 -1.112800 1.971741 -11.023826 11.159178
405 101 3 0.000000 10.457544 1.010294 8.285547
406 101 4 0.556400 10.286387 1.788306 8.816239
407 101 4 0.556400 10.465073 0.288156 8.913793
408 101 5 -1.112800 10.435956 1.017666 8.438455
