TIP5P Water + Nanoparticle System (with SHAKE)

13 atoms
4 bonds
6 angles

5 atom types
2 bond types
3 angle types

0.0 14.422495703074082 xlo xhi
0.0 14.422495703074082 ylo yhi
0.0 14.422495703074082 zlo zhi

Masses

1 28.0855  # Si
2 12.0107  # C
3 15.9994  # O (water)
4 1.008  # H (water)
5 0.0001  # L (lone pair)

Atoms  # full

1 1 1 0.000000 0.000000 0.000000 0.000000
2 1 1 0.000000 0.000000 2.179000 2.179000
3 1 1 0.000000 2.179000 0.000000 2.179000
4 1 1 0.000000 2.179000 2.179000 0.000000
5 1 2 0.000000 1.089500 1.089500 1.089500
6 1 2 0.000000 3.268500 1.089500 3.268500
7 1 2 0.000000 3.268500 3.268500 1.089500
8 1 2 0.000000 1.089500 3.268500 3.268500
9 2 3 0.000000 2.376994 1.634250 6.846773
10 2 4 0.241000 3.124835 2.084589 7.239406
11 2 4 0.241000 1.655019 2.258323 6.921046
12 2 5 -0.241000 2.922973 1.198086 6.805923
13 2 5 -0.241000 1.813173 1.329266 6.565542

Bonds

1 1 9 10  # O-H1
2 1 9 11  # O-H2
3 2 9 12  # O-L1
4 2 9 13  # O-L2

Angles

1 1 10 9 11  # H-O-H
2 2 10 9 12  # H-O-L
3 2 10 9 13  # H-O-L
4 2 11 9 12  # H-O-L
5 2 11 9 13  # H-O-L
6 3 12 9 13  # L-O-L
