TIP5P System - No Bonds/Angles (for rigid/small)

496 atoms

5 atom types

-20.0 20.0 xlo xhi
-20.0 20.0 ylo yhi
-20.0 20.0 zlo zhi

Masses

1 28.0855
2 12.0107
3 15.9994
4 1.008
5 0.0001

Atoms  # full

1 1 1 0.0 0.0 0.0 0.0
2 2 3 0.000 -2.773388 5.021746 6.434937
3 2 4 0.241 -2.334143 4.750942 5.626034
4 2 4 0.241 -3.517459 4.421461 6.516255
5 2 5 -0.241 -2.293884 5.524683 6.523830
6 2 5 -0.241 -2.966432 5.337420 7.029796
7 3 3 0.000 1.974570 -5.822322 0.055941
8 3 4 0.241 1.351518 -5.330988 -0.483497
9 3 4 0.241 1.432321 -6.453045 0.534220
10 3 5 -0.241 2.499156 -5.437962 -0.204536
11 3 5 -0.241 2.545081 -6.075693 0.373892
12 4 3 0.000 -0.303498 -6.162543 3.206483
13 4 4 0.241 -1.092070 -5.686859 2.937271
14 4 4 0.241 -0.040864 -5.745013 4.029458
15 4 5 -0.241 -0.355103 -6.565718 2.635905
16 4 5 -0.241 0.242359 -6.598771 3.256659
17 5 3 0.000 8.568402 -8.040194 7.666078
18 5 4 0.241 8.863108 -8.593273 6.939547
19 5 4 0.241 9.102700 -8.319855 8.412343
20 5 5 -0.241 8.110783 -7.726608 7.238268
21 5 5 -0.241 8.246958 -7.571208 8.075344
22 6 3 0.000 4.245229 -8.936281 4.484443
23 6 4 0.241 3.928700 -8.757109 3.596579
24 6 4 0.241 4.913808 -8.266013 4.640454
25 6 5 -0.241 3.799862 -9.474973 4.531677
26 6 5 -0.241 4.359756 -9.195853 5.124972
27 7 3 0.000 4.022597 -2.714286 9.853138
28 7 4 0.241 4.612060 -3.254101 10.383919
29 7 4 0.241 3.856280 -1.938806 10.393106
30 7 5 -0.241 4.038548 -3.198799 9.347406
31 7 5 -0.241 3.608993 -2.451240 9.352627
32 8 3 0.000 5.323464 1.695677 -6.500387
33 8 4 0.241 6.216672 1.856045 -6.811927
34 8 4 0.241 5.229036 2.269564 -5.737279
35 8 5 -0.241 5.228800 1.233154 -7.017961
36 8 5 -0.241 4.667469 1.468181 -6.407176
37 9 3 0.000 5.391800 5.817071 -7.192665
38 9 4 0.241 5.668889 6.184073 -8.034763
39 9 4 0.241 4.851146 5.059961 -7.427343
40 9 5 -0.241 5.748028 6.319824 -6.859329
41 9 5 -0.241 5.283258 5.680926 -6.514097
42 10 3 0.000 -6.014243 7.676029 6.105179
43 10 4 0.241 -5.622630 7.579833 5.234558
44 10 4 0.241 -5.293902 7.983382 6.659470
45 10 5 -0.241 -6.630143 7.462130 5.848885
46 10 5 -0.241 -6.443307 7.691490 6.658746
47 11 3 0.000 9.611362 -9.576318 -7.268594
48 11 4 0.241 10.505692 -9.781789 -6.988322
49 11 4 0.241 9.209216 -9.161891 -6.502353
50 11 5 -0.241 9.748528 -9.850664 -7.898428
51 11 5 -0.241 9.011665 -9.498340 -7.622224
52 12 3 0.000 9.064961 1.517609 -1.133243
53 12 4 0.241 9.302855 0.850142 -1.780151
54 12 4 0.241 9.223035 2.351785 -1.580187
55 12 5 -0.241 8.901588 1.012540 -0.676092
56 12 5 -0.241 8.856222 1.866012 -0.562440
57 13 3 0.000 -4.269669 5.081527 6.253018
58 13 4 0.241 -4.663169 5.608218 5.554197
59 13 4 0.241 -4.426673 5.588231 7.052516
60 13 5 -0.241 -4.078206 4.601638 5.779921
61 13 5 -0.241 -3.943792 4.590279 6.631503
62 14 3 0.000 4.872840 4.979545 9.355826
63 14 4 0.241 5.587257 4.539388 8.890566
64 14 4 0.241 5.110298 4.907889 10.282689
65 14 5 -0.241 4.561117 5.115314 8.743317
66 14 5 -0.241 4.290034 5.324755 9.534542
67 15 3 0.000 7.589563 2.266915 -6.780810
68 15 4 0.241 7.154639 1.760916 -7.470304
69 15 4 0.241 7.390001 1.790936 -5.971974
70 15 5 -0.241 7.820810 2.719793 -7.262680
71 15 5 -0.241 7.954579 2.736854 -6.411091
72 16 3 0.000 0.117549 -9.876793 -6.038978
73 16 4 0.241 -0.215602 -9.108289 -6.506962
74 16 4 0.241 0.324697 -9.551366 -5.160467
75 16 5 -0.241 0.023213 -10.264893 -6.614522
76 16 5 -0.241 0.330297 -10.516720 -5.849230
77 17 3 0.000 -5.486585 -9.683095 -7.623702
78 17 4 0.241 -5.269934 -9.713042 -8.557919
79 17 4 0.241 -5.494882 -8.747903 -7.409357
80 17 5 -0.241 -5.520561 -10.382721 -7.611848
81 17 5 -0.241 -5.648412 -9.834176 -6.959053
82 18 3 0.000 -8.167336 -1.575511 3.173996
83 18 4 0.241 -7.811127 -2.015696 2.399433
84 18 4 0.241 -7.938421 -2.153562 3.904783
85 18 5 -0.241 -8.406099 -1.057885 2.766776
86 18 5 -0.241 -8.478447 -1.136242 3.622354
87 19 3 0.000 9.019467 -1.153455 6.241376
88 19 4 0.241 9.815796 -0.945183 5.748347
89 19 4 0.241 8.632362 -0.299147 6.443624
90 19 5 -0.241 9.163489 -1.836327 6.180425
91 19 5 -0.241 8.490874 -1.469148 6.575591
92 20 3 0.000 6.969628 -5.947764 -2.194909
93 20 4 0.241 7.152004 -6.823999 -2.540665
94 20 4 0.241 7.111742 -6.028705 -1.249474
95 20 5 -0.241 6.828598 -5.724015 -2.843615
96 20 5 -0.241 6.805715 -5.272003 -2.109755
97 21 3 0.000 -5.277858 6.388887 3.441860
98 21 4 0.241 -5.217203 6.843262 2.598972
99 21 4 0.241 -5.747453 7.001822 4.011410
100 21 5 -0.241 -4.935020 5.842323 3.168909
101 21 5 -0.241 -5.236392 5.932442 3.971681
102 22 3 0.000 -1.954439 9.542706 2.041693
103 22 4 0.241 -1.021608 9.515171 1.818838
104 22 4 0.241 -2.016521 10.206039 2.732150
105 22 5 -0.241 -2.080850 9.047628 1.562433
106 22 5 -0.241 -2.646318 9.440289 2.081522
107 23 3 0.000 0.822368 9.480322 -7.828337
108 23 4 0.241 0.832809 10.059259 -8.593398
109 23 4 0.241 0.796029 10.076398 -7.076941
110 23 5 -0.241 0.840290 8.923339 -8.252862
111 23 5 -0.241 0.819386 8.933080 -7.390970
112 24 3 0.000 7.859193 -4.448810 -7.788405
113 24 4 0.241 8.397916 -4.956657 -8.398704
114 24 4 0.241 7.825602 -4.985990 -6.994109
115 24 5 -0.241 7.784482 -3.949440 -8.274017
116 24 5 -0.241 7.459202 -3.966112 -7.475704
117 25 3 0.000 -0.983814 2.706854 6.827021
118 25 4 0.241 -0.893877 3.546461 7.282617
119 25 4 0.241 -1.113370 2.065792 7.529054
120 25 5 -0.241 -0.902823 3.034338 6.213044
121 25 5 -0.241 -1.027573 2.192787 6.353109
122 26 3 0.000 9.527391 -3.960721 0.967975
123 26 4 0.241 9.826835 -4.201049 0.088673
124 26 4 0.241 9.928011 -4.614523 1.544726
125 26 5 -0.241 9.169695 -3.423088 0.696356
126 26 5 -0.241 9.227199 -3.658090 1.523917
127 27 3 0.000 -1.122078 2.488209 -9.952844
128 27 4 0.241 -0.516098 1.752356 -9.843737
129 27 4 0.241 -0.912196 3.081112 -9.228268
130 27 5 -0.241 -1.392870 2.177773 -10.519478
131 27 5 -0.241 -1.617996 2.932983 -10.169670
132 28 3 0.000 1.269165 6.150952 2.479976
133 28 4 0.241 1.275682 5.231641 2.205349
134 28 4 0.241 1.775341 6.161306 3.295007
135 28 5 -0.241 0.886269 6.313859 1.916395
136 28 5 -0.241 1.170254 6.842242 2.535711
137 29 3 0.000 2.635680 -4.115398 -0.929447
138 29 4 0.241 2.659487 -3.840620 -1.848428
139 29 4 0.241 2.457991 -5.057591 -0.965439
140 29 5 -0.241 2.765246 -3.455957 -0.731654
141 29 5 -0.241 2.650724 -4.147634 -0.229799
142 30 3 0.000 9.659202 2.256930 -7.192622
143 30 4 0.241 9.152826 2.176940 -8.003659
144 30 4 0.241 9.020958 2.095731 -6.494585
145 30 5 -0.241 10.234507 2.393338 -7.568373
146 30 5 -0.241 10.159559 2.347182 -6.710678
147 31 3 0.000 -8.707685 3.121745 5.920732
148 31 4 0.241 -8.162915 3.639675 5.324436
149 31 4 0.241 -8.804743 2.274163 5.481664
150 31 5 -0.241 -8.735660 3.664691 6.362545
151 31 5 -0.241 -9.100448 2.888590 6.451908
152 32 3 0.000 -3.722404 -5.217236 -9.541652
153 32 4 0.241 -3.654922 -6.172847 -9.595032
154 32 4 0.241 -4.651222 -5.051854 -9.366890
155 32 5 -0.241 -3.034554 -5.164488 -9.663520
156 32 5 -0.241 -3.600810 -4.527362 -9.533853
157 33 3 0.000 3.531566 -4.041706 -3.097694
158 33 4 0.241 4.422311 -3.974714 -2.747434
159 33 4 0.241 3.034535 -4.483428 -2.406002
160 33 5 -0.241 3.740947 -3.721062 -3.684311
161 33 5 -0.241 2.952192 -4.010194 -3.490255
162 34 3 0.000 -2.629817 -0.973057 -8.273965
163 34 4 0.241 -2.426516 -1.763302 -8.778720
164 34 4 0.241 -1.802490 -0.742229 -7.846363
165 34 5 -0.241 -3.291422 -1.000367 -8.502669
166 34 5 -0.241 -2.936751 -0.420032 -7.972756
167 35 3 0.000 -1.279580 5.201254 9.083142
168 35 4 0.241 -1.789717 4.670643 8.467668
169 35 4 0.241 -0.627815 4.594256 9.440004
170 35 5 -0.241 -1.676316 5.757499 8.928340
171 35 5 -0.241 -1.015939 5.714084 9.480975
172 36 3 0.000 9.100561 -5.118109 6.486049
173 36 4 0.241 9.845181 -5.718830 6.558656
174 36 4 0.241 9.313617 -4.398769 7.084173
175 36 5 -0.241 8.801630 -5.548980 6.021546
176 36 5 -0.241 8.499511 -4.798712 6.320228
177 37 3 0.000 7.783157 5.562465 -0.143803
178 37 4 0.241 8.397931 5.467609 -0.874318
179 37 4 0.241 6.927152 5.671121 -0.563381
180 37 5 -0.241 8.314472 5.498148 0.308237
181 37 5 -0.241 7.478542 5.613815 0.484961
182 38 3 0.000 -2.707972 -3.143455 9.752293
183 38 4 0.241 -1.802589 -3.347775 9.509124
184 38 4 0.241 -2.629207 -2.442139 10.402330
185 38 5 -0.241 -2.935494 -3.634345 9.307284
186 38 5 -0.241 -3.405309 -3.119619 9.814945
187 39 3 0.000 -4.581200 3.748248 -9.259900
188 39 4 0.241 -5.305461 3.119002 -9.250379
189 39 4 0.241 -4.141090 3.620030 -8.417013
190 39 5 -0.241 -4.778574 3.961782 -9.897253
191 39 5 -0.241 -4.116794 4.246546 -9.423602
192 40 3 0.000 -3.406247 6.163855 -6.914804
193 40 4 0.241 -3.516370 6.803458 -7.621471
194 40 4 0.241 -4.201193 6.252735 -6.384939
195 40 5 -0.241 -2.786362 5.978062 -7.183125
196 40 5 -0.241 -3.175588 5.665054 -6.480332
197 41 3 0.000 -5.508851 1.235166 -7.742922
198 41 4 0.241 -5.526334 1.273485 -8.701474
199 41 4 0.241 -5.238950 2.115342 -7.472662
200 41 5 -0.241 -5.709125 0.564348 -7.768711
201 41 5 -0.241 -5.545787 1.042824 -7.070306
202 42 3 0.000 2.746754 1.908292 -8.757440
203 42 4 0.241 3.174060 1.259167 -9.320149
204 42 4 0.241 2.483620 1.414047 -7.978287
205 42 5 -0.241 2.865821 2.401522 -9.240471
206 42 5 -0.241 2.473404 2.489550 -8.477812
207 43 3 0.000 -7.582145 1.595430 2.005842
208 43 4 0.241 -6.888549 0.946701 1.869198
209 43 4 0.241 -7.218144 2.202855 2.653248
210 43 5 -0.241 -7.985422 1.257865 1.543035
211 43 5 -0.241 -8.172750 1.971811 1.988657
212 44 3 0.000 -5.714420 8.679749 -6.784485
213 44 4 0.241 -6.271216 8.592515 -7.560993
214 44 4 0.241 -6.310453 8.541852 -6.045347
215 44 5 -0.241 -5.161581 8.799930 -7.197641
216 44 5 -0.241 -5.183882 8.771136 -6.336210
217 45 3 0.000 -5.009186 -7.497545 3.587783
218 45 4 0.241 -5.606672 -7.071610 2.969571
219 45 4 0.241 -5.568943 -8.092683 4.090854
220 45 5 -0.241 -4.476146 -7.127873 3.323240
221 45 5 -0.241 -4.454703 -7.708209 3.960531
222 46 3 0.000 5.546958 -3.347765 -8.642331
223 46 4 0.241 4.740766 -3.139851 -9.119220
224 46 4 0.241 5.592997 -2.685905 -7.949209
225 46 5 -0.241 5.661950 -3.885454 -9.076426
226 46 5 -0.241 6.146322 -3.627450 -8.411441
227 47 3 0.000 6.047633 -6.659571 5.817823
228 47 4 0.241 5.425591 -6.459389 5.115265
229 47 4 0.241 5.757595 -6.119522 6.555943
230 47 5 -0.241 6.381850 -7.103971 5.391702
231 47 5 -0.241 6.570547 -6.910805 6.210524
232 48 3 0.000 -1.574487 -5.781564 -7.343270
233 48 4 0.241 -0.860588 -6.062005 -7.919723
234 48 4 0.241 -1.498724 -6.349837 -6.573906
235 48 5 -0.241 -1.764185 -5.300976 -7.816369
236 48 5 -0.241 -2.126876 -5.464568 -7.051462
237 49 3 0.000 5.070116 2.481662 -2.184021
238 49 4 0.241 5.299585 2.879456 -3.026457
239 49 4 0.241 5.265056 3.162290 -1.536456
240 49 5 -0.241 4.880508 1.894560 -2.515882
241 49 5 -0.241 4.860883 2.055311 -1.669027
242 50 3 0.000 -2.755696 -4.328452 -7.613392
243 50 4 0.241 -2.300496 -3.941909 -8.364374
244 50 4 0.241 -2.330650 -3.936508 -6.847683
245 50 5 -0.241 -3.160735 -4.695781 -8.051325
246 50 5 -0.241 -3.177874 -4.692711 -7.189301
247 51 3 0.000 -3.310763 1.368503 3.902361
248 51 4 0.241 -3.740329 1.997975 3.319407
249 51 4 0.241 -3.129803 1.867023 4.701941
250 51 5 -0.241 -3.367448 0.875699 3.407686
251 51 5 -0.241 -3.020451 0.801272 4.193461
252 52 3 0.000 -4.509171 7.495999 1.301003
253 52 4 0.241 -3.732824 7.064867 0.937674
254 52 4 0.241 -4.240748 8.408844 1.424530
255 52 5 -0.241 -4.855743 6.887722 1.275326
256 52 5 -0.241 -5.144425 7.651583 1.552035
257 53 3 0.000 -4.957472 0.710351 6.234276
258 53 4 0.241 -4.544777 0.660645 5.369517
259 53 4 0.241 -5.180128 1.637543 6.340748
260 53 5 -0.241 -4.866213 0.020426 6.314575
261 53 5 -0.241 -5.227320 0.575654 6.866582
262 54 3 0.000 -2.235558 4.347758 0.896605
263 54 4 0.241 -1.846083 4.664474 0.078929
264 54 4 0.241 -3.181668 4.426606 0.757839
265 54 5 -0.241 -1.594463 4.229488 1.153084
266 54 5 -0.241 -2.353554 4.094294 1.538949
267 55 3 0.000 5.243309 -7.421200 9.317192
268 55 4 0.241 5.209495 -7.596644 8.374498
269 55 4 0.241 5.533674 -8.249408 9.704948
270 55 5 -0.241 5.030636 -6.764103 9.199859
271 55 5 -0.241 5.214886 -7.135108 9.956031
272 56 3 0.000 -3.620271 -0.381301 -1.310258
273 56 4 0.241 -3.469353 0.399227 -1.847469
274 56 4 0.241 -3.998864 -0.042605 -0.496287
275 56 5 -0.241 -3.362817 -0.781640 -1.824280
276 56 5 -0.241 -3.663768 -1.032759 -1.056324
277 57 3 0.000 3.269558 -4.299072 1.427981
278 57 4 0.241 2.577074 -4.538416 0.808484
279 57 4 0.241 3.598816 -5.138611 1.755637
280 57 5 -0.241 3.149873 -3.621566 1.295948
281 57 5 -0.241 3.730588 -3.962691 1.834271
282 58 3 0.000 -9.420543 -1.815055 -8.643890
283 58 4 0.241 -9.637456 -1.528716 -9.533583
284 58 4 0.241 -8.956125 -1.069149 -8.258485
285 58 5 -0.241 -9.730459 -2.430683 -8.769292
286 58 5 -0.241 -9.343219 -2.169485 -8.044579
287 59 3 0.000 6.828804 -0.534862 9.784041
288 59 4 0.241 6.475562 -0.996259 9.020544
289 59 4 0.241 6.300272 -0.849881 10.520255
290 59 5 -0.241 7.292945 -0.211639 9.370673
291 59 5 -0.241 7.193317 -0.128443 10.223047
292 60 3 0.000 2.729042 6.513259 -2.467232
293 60 4 0.241 2.005642 5.889194 -2.378735
294 60 4 0.241 3.432982 6.141888 -1.931370
295 60 5 -0.241 2.332565 6.909181 -2.887737
296 60 5 -0.241 3.143806 7.052802 -2.633473
297 61 3 0.000 1.135629 -9.473793 -8.523738
298 61 4 0.241 1.195278 -9.119026 -9.413220
299 61 4 0.241 1.279046 -8.715841 -7.953181
300 61 5 -0.241 1.016408 -10.111212 -8.788796
301 61 5 -0.241 1.064018 -9.882058 -7.958970
302 62 3 0.000 4.163322 9.350737 5.820809
303 62 4 0.241 4.928872 8.980975 5.376055
304 62 4 0.241 4.232041 10.295882 5.670565
305 62 5 -0.241 3.969343 8.706707 6.016692
306 62 5 -0.241 3.573293 9.454046 6.184080
307 63 3 0.000 0.516467 9.548647 0.987197
308 63 4 0.241 1.274650 9.790805 0.451366
309 63 4 0.241 0.200463 8.729908 0.599379
310 63 5 -0.241 0.613959 10.121056 1.379136
311 63 5 -0.241 0.003436 9.518086 1.463260
312 64 3 0.000 -3.488425 -4.428205 5.344461
313 64 4 0.241 -3.016035 -4.023021 4.614208
314 64 4 0.241 -2.798163 -4.774411 5.913913
315 64 5 -0.241 -4.096644 -4.242389 5.050668
316 64 5 -0.241 -3.972814 -4.669447 5.789367
317 65 3 0.000 -2.639388 9.559835 -8.390590
318 65 4 0.241 -3.358822 9.826418 -8.966737
319 65 4 0.241 -3.057681 9.403334 -7.541393
320 65 5 -0.241 -2.190374 9.628342 -8.923943
321 65 5 -0.241 -2.019218 9.387879 -8.113837
322 66 3 0.000 3.920591 -3.973815 -8.036993
323 66 4 0.241 4.321320 -4.236555 -8.868246
324 66 4 0.241 4.547347 -3.357094 -7.653030
325 66 5 -0.241 3.373567 -4.390068 -8.172161
326 66 5 -0.241 3.502032 -3.890219 -7.481483
327 67 3 0.000 8.828600 1.020765 5.994286
328 67 4 0.241 8.693440 0.781420 5.075024
329 67 4 0.241 9.109974 0.205824 6.415351
330 67 5 -0.241 8.641526 1.679722 5.847483
331 67 5 -0.241 8.878267 1.352577 6.609270
332 68 3 0.000 8.647555 2.911383 -7.328493
333 68 4 0.241 8.226678 3.318411 -8.088617
334 68 4 0.241 9.223201 3.594664 -6.978700
335 68 5 -0.241 8.291640 2.320567 -7.451103
336 68 5 -0.241 8.858023 2.477578 -6.820273
337 69 3 0.000 -7.348356 2.766737 -4.812446
338 69 4 0.241 -6.983246 2.559752 -5.675260
339 69 4 0.241 -7.167628 3.701514 -4.693591
340 69 5 -0.241 -7.552435 2.100299 -4.741846
341 69 5 -0.241 -7.657230 2.749230 -4.183906
342 70 3 0.000 -2.373224 8.633622 6.421284
343 70 4 0.241 -2.057946 8.101151 5.688024
344 70 4 0.241 -2.290302 8.060876 7.186582
345 70 5 -0.241 -2.494298 9.164384 5.980370
346 70 5 -0.241 -2.626360 9.141493 6.832089
347 71 3 0.000 -7.874048 3.737951 -3.389385
348 71 4 0.241 -8.702685 3.753846 -3.872814
349 71 4 0.241 -8.069555 4.185807 -2.563675
350 71 5 -0.241 -7.572748 3.397290 -3.922246
351 71 5 -0.241 -7.212903 3.642799 -3.178186
352 72 3 0.000 0.738391 -7.491105 0.064465
353 72 4 0.241 -0.197645 -7.592021 -0.120599
354 72 4 0.241 0.794681 -7.490119 1.022289
355 72 5 -0.241 0.869765 -7.473109 -0.623422
356 72 5 -0.241 1.433762 -7.415192 0.026148
357 73 3 0.000 -5.507137 9.074214 3.749132
358 73 4 0.241 -5.071088 8.239137 3.567186
359 73 4 0.241 -5.446199 9.174025 4.701455
360 73 5 -0.241 -5.634061 9.154023 3.064812
361 73 5 -0.241 -5.847259 9.685375 3.709484
362 74 3 0.000 -9.026401 0.977474 -1.242511
363 74 4 0.241 -9.429774 1.096203 -2.104944
364 74 4 0.241 -9.367362 0.136043 -0.932133
365 74 5 -0.241 -8.694392 1.589913 -1.316402
366 74 5 -0.241 -8.658919 1.044198 -0.649825
367 75 3 0.000 -3.764917 9.722416 8.175539
368 75 4 0.241 -3.545359 10.647343 8.305543
369 75 4 0.241 -3.167275 9.249857 8.758728
370 75 5 -0.241 -4.256344 9.906995 7.711640
371 75 5 -0.241 -4.041457 9.112722 7.969212
372 76 3 0.000 -0.074344 4.421494 9.291360
373 76 4 0.241 -0.959830 4.728574 9.085905
374 76 4 0.241 -0.132102 3.465640 9.231339
375 76 5 -0.241 0.133642 5.085238 9.374771
376 76 5 -0.241 0.604089 4.367439 9.457430
377 77 3 0.000 -4.129641 1.501613 -1.322874
378 77 4 0.241 -4.770178 1.546738 -2.035805
379 77 4 0.241 -4.652382 1.303497 -0.543074
380 77 5 -0.241 -3.616517 1.642623 -1.778497
381 77 5 -0.241 -3.549567 1.504376 -0.930090
382 78 3 0.000 2.649233 -8.058572 -0.046594
383 78 4 0.241 2.274145 -8.424130 -0.850504
384 78 4 0.241 2.248797 -8.570528 0.659203
385 78 5 -0.241 3.020837 -7.604644 -0.429519
386 78 5 -0.241 3.006430 -7.687851 0.428536
387 79 3 0.000 9.261728 -5.507799 7.801537
388 79 4 0.241 9.820575 -5.032675 7.183036
389 79 4 0.241 9.639672 -5.315979 8.662327
390 79 5 -0.241 8.872960 -5.740672 7.267307
391 79 5 -0.241 8.770142 -5.901690 8.108075
392 80 3 0.000 1.723979 -1.056186 -6.879055
393 80 4 0.241 1.045076 -0.916364 -7.542483
394 80 4 0.241 1.752901 -0.232254 -6.388244
395 80 5 -0.241 1.828242 -1.703442 -7.125957
396 80 5 -0.241 2.230540 -1.314622 -6.469936
397 81 3 0.000 5.046514 5.107236 -2.186015
398 81 4 0.241 5.396667 4.473528 -2.815620
399 81 4 0.241 4.886265 5.897835 -2.705503
400 81 5 -0.241 5.102328 4.628757 -1.677374
401 81 5 -0.241 4.812237 5.438274 -1.614788
402 82 3 0.000 -4.964182 9.879993 -3.933486
403 82 4 0.241 -5.674659 10.055209 -4.554064
404 82 4 0.241 -4.163405 9.968648 -4.454535
405 82 5 -0.241 -5.436079 9.780606 -3.425344
406 82 5 -0.241 -4.577144 9.731408 -3.368777
407 83 3 0.000 -9.301584 -5.030983 -6.995050
408 83 4 0.241 -9.655569 -5.617037 -7.667234
409 83 4 0.241 -8.391783 -4.882664 -7.261243
410 83 5 -0.241 -9.921892 -5.033995 -6.669502
411 83 5 -0.241 -9.203608 -4.616608 -6.438753
412 84 3 0.000 6.886857 -5.839404 -0.013027
413 84 4 0.241 6.417969 -5.198902 -0.552006
414 84 4 0.241 7.811583 -5.704675 -0.230570
415 84 5 -0.241 6.276632 -6.059937 0.251100
416 84 5 -0.241 7.068705 -6.347397 0.433790
417 85 3 0.000 -6.323196 -2.257431 9.015358
418 85 4 0.241 -7.196738 -2.624449 9.166419
419 85 4 0.241 -6.218550 -1.596628 9.703098
420 85 5 -0.241 -6.239890 -2.687559 8.468712
421 85 5 -0.241 -5.683929 -2.103389 8.773738
422 86 3 0.000 0.808773 4.430686 -3.936101
423 86 4 0.241 1.464446 5.030525 -3.574325
424 86 4 0.241 0.406594 4.022607 -3.166478
425 86 5 -0.241 0.990281 4.627011 -4.583622
426 86 5 -0.241 0.389042 4.054152 -4.351818
427 87 3 0.000 -6.130012 3.326052 6.852100
428 87 4 0.241 -5.783488 2.471995 7.118755
429 87 4 0.241 -6.929155 3.433529 7.372115
430 87 5 -0.241 -5.591763 3.403604 6.410461
431 87 5 -0.241 -6.242912 3.950100 6.554460
432 88 3 0.000 -6.050012 4.183342 5.855767
433 88 4 0.241 -5.539549 4.117851 5.045993
434 88 4 0.241 -5.393023 4.171927 6.554932
435 88 5 -0.241 -6.640212 4.204111 5.478931
436 88 5 -0.241 -6.556932 4.234845 6.336550
437 89 3 0.000 7.972186 2.351572 -6.165856
438 89 4 0.241 7.756497 2.936205 -6.895430
439 89 4 0.241 7.574822 2.768860 -5.398674
440 89 5 -0.241 8.311874 1.928348 -6.608874
441 89 5 -0.241 8.208618 1.833236 -5.758180
442 90 3 0.000 7.606151 4.103369 -0.551934
443 90 4 0.241 7.811860 3.484248 -1.255475
444 90 4 0.241 8.097984 3.778202 0.205009
445 90 5 -0.241 7.197081 4.463533 -0.992065
446 90 5 -0.241 7.359703 4.630604 -0.161987
447 91 3 0.000 1.165405 -3.233193 3.662298
448 91 4 0.241 1.719890 -2.881265 2.962805
449 91 4 0.241 1.420914 -2.737539 4.443091
450 91 5 -0.241 0.869770 -3.672297 3.203429
451 91 5 -0.241 0.699844 -3.590609 4.044762
452 92 3 0.000 -3.474975 -8.258125 0.548251
453 92 4 0.241 -2.643828 -8.474233 0.120362
454 92 4 0.241 -3.247731 -8.153725 1.474565
455 92 5 -0.241 -3.800671 -8.296717 -0.070784
456 92 5 -0.241 -4.143905 -8.114553 0.698889
457 93 3 0.000 3.765022 3.750860 0.324840
458 93 4 0.241 3.171065 4.304659 0.835837
459 93 4 0.241 4.242612 3.240901 0.982446
460 93 5 -0.241 3.515189 4.032558 -0.265923
461 93 5 -0.241 4.124212 3.427962 -0.182597
462 94 3 0.000 -6.904822 -9.894842 -6.822951
463 94 4 0.241 -6.691504 -9.748428 -7.746885
464 94 4 0.241 -7.650308 -10.498575 -6.841753
465 94 5 -0.241 -6.382296 -9.466782 -6.637200
466 94 5 -0.241 -6.927240 -9.893134 -6.122761
467 95 3 0.000 7.517914 6.073674 -0.572943
468 95 4 0.241 8.023190 6.421087 -1.310910
469 95 4 0.241 6.738869 5.685967 -0.977132
470 95 5 -0.241 8.011529 6.301512 -0.131122
471 95 5 -0.241 7.281574 5.883701 0.058584
472 96 3 0.000 -6.435183 2.389482 9.136422
473 96 4 0.241 -6.393185 2.510433 8.185526
474 96 4 0.241 -7.373620 2.345089 9.331256
475 96 5 -0.241 -5.735346 2.400495 9.166085
476 96 5 -0.241 -6.292585 2.306521 9.817271
477 97 3 0.000 7.490699 1.570634 -8.669796
478 97 4 0.241 7.614905 2.125582 -9.442584
479 97 4 0.241 7.655356 2.154453 -7.926399
480 97 5 -0.241 7.343474 1.027348 -9.086854
481 97 5 -0.241 7.366465 1.043758 -8.225117
482 98 3 0.000 -0.128777 -4.314103 -8.139623
483 98 4 0.241 0.188072 -4.064913 -9.010317
484 98 4 0.241 0.626274 -4.731963 -7.720234
485 98 5 -0.241 -0.756966 -4.045287 -8.294180
486 98 5 -0.241 -0.507910 -4.424410 -7.560950
487 99 3 0.000 -2.216319 -6.141416 6.446997
488 99 4 0.241 -2.413475 -6.772711 5.751877
489 99 4 0.241 -2.427272 -6.605902 7.259615
490 99 5 -0.241 -2.020638 -5.673937 5.963319
491 99 5 -0.241 -2.028479 -5.579129 6.820255
492 100 3 0.000 -5.394015 -1.936216 -7.230462
493 100 4 0.241 -5.244879 -1.021016 -6.983960
494 100 4 0.241 -4.770476 -2.432983 -6.696591
495 100 5 -0.241 -5.891892 -1.731577 -7.678807
496 100 5 -0.241 -5.622261 -2.534080 -7.515479
