LAMMPS data file via write_data, version 22 Jul 2025, timestep = 48, units = real

508 atoms
5 atom types
400 bonds
2 bond types
600 angles
3 angle types

0 40 xlo xhi
0 40 ylo yhi
0 40 zlo zhi

Masses

1 28.0855
2 12.0107
3 15.9994
4 1.008
5 0.0001

Pair Coeffs # lj/cut/coul/long

1 0.4 3.826
2 0.095 3.851
3 0.178 3.097
4 0 0
5 0 0

Atoms # full

1 1 1 0 39.58189049293237 39.15612515797103 39.329004144063255 -1 -1 -1
2 1 1 0 37.953144297716605 2.5415972203549293 2.514702398536793 -1 0 0
3 1 1 0 2.501662938982818 37.942952431461926 2.5317287636221186 0 -1 0
4 1 1 0 2.5205509630832794 2.5276326701735066 37.948582690863006 0 0 -1
5 1 2 0 1.465710261086889 1.4876229667450624 1.4819818343530542 0 0 0
6 1 2 0 4.085925169335361 1.3236346114696607 4.0953563824036365 0 0 0
7 1 2 0 4.0976570645522115 4.084257514869053 1.339335774005073 0 0 0
8 1 2 0 1.3238831525777974 4.1141957587199816 4.113106116539281 0 0 0
60 12 4 0.241 3.026080512878586 5.247094410428456 6.503857546416193 0 0 0
179 36 3 0 13.21625637672996 2.5978733626463755 5.425450201372997 0 0 0
182 36 5 -0.241 13.120021699817395 2.24769375584521 4.811349228193948 0 0 0
183 36 5 -0.241 12.75435429939161 3.127441888555615 5.453095381602615 0 0 0
180 36 4 0.241 13.924271580623758 1.9249558944283647 5.38051934544344 0 0 0
181 36 4 0.241 13.390931171492 3.044478961226915 6.266276523085954 0 0 0
244 49 3 0 16.563056250420495 6.237742685583095 2.415256276776917 0 0 0
245 49 4 0.241 15.951029172994303 6.474885916108492 1.556744580691279 0 0 0
247 49 5 -0.241 16.795978738924614 5.716605231838155 1.9771619394111393 0 0 0
248 49 5 -0.241 16.97594623548382 6.106579214819963 3.0417410639705174 0 0 0
284 57 3 0 15.176248546423984 0.9382355153617123 0.1378630999642815 0 0 0
286 57 4 0.241 14.756083777616588 0.8320372617280812 1.0957285983559513 0 0 0
288 57 5 -0.241 15.530661871447572 0.30066079700467274 0.316845532610983 0 0 0
199 40 3 0 29.057283280084214 2.801866178690338 4.619968650582738 -1 0 0
200 40 4 0.241 28.653947461059236 2.0160833202815467 4.977667691354129 -1 0 0
201 40 4 0.241 28.39561172411884 3.3967899264998356 4.365178481903025 -1 0 0
202 40 5 -0.241 29.469326308026815 2.3117696840433832 4.692103700724414 -1 0 0
203 40 5 -0.241 29.274288316139124 3.3472102111579 4.309056100304392 -1 0 0
239 48 3 0 31.59765913768377 6.3899285008642925 2.4140000167824422 -1 0 0
240 48 4 0.241 31.68881237827798 5.663686235734465 1.7328252660539623 -1 0 0
242 48 5 -0.241 32.1420160345166 5.972985192043573 2.792181547913734 -1 0 0
264 53 3 0 30.681425562085646 0.2689005105533794 1.3127943745736752 -1 0 0
265 53 4 0.241 30.400743876915563 1.0753240153973438 2.0169898552382226 -1 0 0
267 53 5 -0.241 31.206571406527363 0.690633762721104 1.2216359403394013 -1 0 0
109 22 3 0 37.5064744935183 6.583244255927872 6.339068094252794 -1 0 0
111 22 4 0.241 36.9115581147655 6.3685445559396845 5.749133397613218 -1 0 0
113 22 5 -0.241 36.94231744597839 6.231510802343591 6.520837897801824 -1 0 0
280 56 4 0.241 35.59124217642306 6.32471786972034 1.1708588022867212 -1 0 0
124 25 3 0 3.3436000307834775 9.206865960014571 6.484668702564076 0 0 0
126 25 4 0.241 3.2062095013888348 9.623385261327726 5.874075908581407 0 0 0
128 25 5 -0.241 3.9515286814609096 9.341229006131721 5.983615550439243 0 0 0
229 46 3 0 4.947320993154876 10.544441781766043 2.689206244661306 0 0 0
230 46 4 0.241 5.063433137255635 11.558618061458093 2.424385225879174 0 0 0
231 46 4 0.241 4.704973385651187 10.727217171408157 3.7413543895845662 0 0 0
232 46 5 -0.241 5.472610827498689 10.215508963670468 1.934821185670725 0 0 0
233 46 5 -0.241 4.998263704272771 9.85296890875987 2.745476618619987 0 0 0
254 51 3 0 0.39237129879867916 7.394112520155583 1.6933575197848736 0 0 0
255 51 4 0.241 0.3495251513112635 7.89081485422001 2.4350622472065524 0 0 0
257 51 5 -0.241 0.8972451588092206 7.556431302320265 2.054214886929386 0 0 0
258 51 5 -0.241 0.34367670897903085 7.057129158943321 1.162591240778558 0 0 0
336 67 4 0.241 4.806127976168847 7.0028100508201 0.5635760294212224 0 0 0
164 33 3 0 8.312122293121709 12.013487272335526 6.546396387058867 0 0 0
167 33 5 -0.241 7.646862192243851 11.781273417804414 6.372899440572101 0 0 0
168 33 5 -0.241 8.368417281543758 12.50125084574429 5.97411036323875 0 0 0
204 41 3 0 11.860450100809993 9.394186110448398 4.398576085103205 0 0 0
205 41 4 0.241 11.591367636549618 8.714461620806375 3.6701771394689393 0 0 0
206 41 4 0.241 12.268477302006815 8.989881927758404 4.994023493605315 0 0 0
207 41 5 -0.241 11.566093763519081 9.711037610296644 3.9449747583903245 0 0 0
208 41 5 -0.241 12.064325688713998 9.868807220995548 4.956473959520765 0 0 0
269 54 3 0 7.691598967854842 8.77146451816312 1.1657417685474263 0 0 0
270 54 4 0.241 7.644995667835913 9.639529804601928 1.7915023765947709 0 0 0
271 54 4 0.241 6.50135389149068 8.983095976238817 1.601886756745611 0 0 0
272 54 5 -0.241 8.499672796029014 8.825743536160866 0.9682616990402447 0 0 0
273 54 5 -0.241 7.566909232568341 8.010703200756392 0.6321594971573599 0 0 0
246 49 4 0.241 16.2564025983553 6.914331349927718 2.9835468357826525 0 0 0
174 35 3 0 32.29543532670475 8.850575105794857 5.756302067144837 -1 0 0
175 35 4 0.241 32.14382698812258 7.901872385563551 5.738219965231002 -1 0 0
176 35 4 0.241 33.215440069821774 8.895597490877115 5.868323632989 -1 0 0
177 35 5 -0.241 31.570353406305873 8.827232247974704 5.777128985074271 -1 0 0
178 35 5 -0.241 32.46937671585584 9.578380223764826 5.687434507245534 -1 0 0
241 48 4 0.241 31.023237053997324 7.030419360798577 1.9008832890092178 -1 0 0
243 48 5 -0.241 31.529125081221796 6.88264785115371 2.926085877016939 -1 0 0
110 22 4 0.241 38.21119678082175 7.101392329572539 6.081681727409867 -1 0 0
151 30 4 0.241 37.65149231976615 11.69375932778676 6.5272892961434845 -1 0 0
256 51 4 0.241 39.629664203771526 7.314520412711761 1.2362969845285647 -1 0 0
279 56 3 0 36.27514800012672 7.0699868662289465 0.9379891252495689 -1 0 0
281 56 4 0.241 36.820483622091075 6.945563792296247 1.5046256880036273 -1 0 0
282 56 5 -0.241 35.83550627584101 7.095203767957129 0.5132868594351822 -1 0 0
283 56 5 -0.241 36.8501371329494 7.6064781474381125 0.8666502700367262 -1 0 0
189 38 3 0 1.7125938590940997 17.73621830032851 6.149537835638454 0 0 0
190 38 4 0.241 2.497417534846155 18.065252345626032 5.781229448576471 0 0 0
191 38 4 0.241 1.9229394871616605 16.854112865016425 6.528787245530867 0 0 0
192 38 5 -0.241 1.5863394727776887 18.376210674877147 5.861115224574263 0 0 0
193 38 5 -0.241 1.163928698029046 17.490188259338066 6.416153087972957 0 0 0
296 59 4 0.241 3.369288586187124 16.51574398597086 0.13645479169400196 0 0 0
214 43 3 0 32.43398928917912 16.25463332372374 4.614330875551343 -1 0 0
215 43 4 0.241 31.81272844088698 16.067286003883748 3.879562669667828 -1 0 0
216 43 4 0.241 31.86694490946818 16.506076649315215 5.336532107445763 -1 0 0
217 43 5 -0.241 32.83794065454195 16.0653012564602 4.080408148973374 -1 0 0
218 43 5 -0.241 32.87337636077684 16.39391178422253 5.164279882676871 -1 0 0
274 55 3 0 2.223170524285467 25.523394800958076 0.5011387700099154 0 -1 0
276 55 4 0.241 1.2961792061978168 25.187921522504702 0.5722392379273584 0 -1 0
277 55 5 -0.241 2.9058831617988923 25.75611979693938 0.41047882486982235 0 -1 0
278 55 5 -0.241 2.1430504911121897 25.34608165266845 1.1688513743260167 0 -1 0
210 42 4 0.241 0.8680690529207105 31.646660312895794 3.69081726556965 0 -1 0
212 42 5 -0.241 39.899583322672726 31.777298146843954 2.944406614981435 -1 -1 0
237 47 5 -0.241 6.311145952351353 28.717522807717238 3.224381933412663 0 -1 0
194 39 3 0 12.51498076936021 29.639013527591988 5.815246302780878 0 -1 0
195 39 4 0.241 12.711424511714693 30.32990057991283 5.2699706259072014 0 -1 0
196 39 4 0.241 12.160240707528573 29.994928385467702 6.629315793776537 0 -1 0
197 39 5 -0.241 12.77027384969717 29.41586283293668 5.1911925955104845 0 -1 0
198 39 5 -0.241 12.37358314848979 29.161812204968847 6.238171213774737 0 -1 0
234 47 3 0 6.799162934422274 28.951261424237302 2.8689751669271906 0 -1 0
235 47 4 0.241 6.5753846932435644 28.028404494665054 2.5110083246127033 0 -1 0
236 47 4 0.241 7.446646471206585 29.22764188003827 2.419667623786289 0 -1 0
238 47 5 -0.241 7.031747451669255 29.6209535539166 3.1265031516454322 0 -1 0
184 37 3 0 30.634931630332684 29.74570686734843 6.543146757548809 -1 -1 0
185 37 4 0.241 30.20693370635657 28.852215646695235 6.453032577724401 -1 -1 0
187 37 5 -0.241 30.063676800590567 29.89069770698343 6.154601926912906 -1 -1 0
188 37 5 -0.241 30.95542037954007 30.41179087161201 6.643482386386042 -1 -1 0
290 58 4 0.241 28.61390429440595 31.64079361194064 0.20476892952963444 -1 -1 0
209 42 3 0 39.92414422282598 32.216467892976745 3.504319747404218 -1 -1 0
211 42 4 0.241 39.978961852847185 32.53034595880758 4.125235802942229 -1 -1 0
213 42 5 -0.241 39.22138786938387 32.634464798390184 3.5307084673341556 -1 -1 0
64 13 3 0 2.799583695157656 37.94714910626735 6.319319448881824 0 -1 0
65 13 4 0.241 3.0508114358840377 37.63167920271734 5.384699866282377 0 -1 0
67 13 5 -0.241 2.3820625970902007 38.281899136004775 6.014152877713242 0 -1 0
169 34 3 0 2.8570100269976106 34.35809156590202 4.415220412783583 0 -1 0
170 34 4 0.241 2.6363152377338994 35.201360310551145 4.001820657386499 0 -1 0
171 34 4 0.241 2.4693608812214687 34.20058261394986 5.430072963617114 0 -1 0
172 34 5 -0.241 3.229492847445352 34.41254220316975 3.8433083222521685 0 -1 0
173 34 5 -0.241 2.8723013335506136 33.620801171955875 4.538527230962527 0 -1 0
154 31 3 0 9.594240589153976 37.44802687043393 5.674572807772293 0 -1 0
155 31 4 0.241 9.519681293825514 36.71271277448689 6.152609704891084 0 -1 0
156 31 4 0.241 10.431721771451336 37.89442965506516 5.801102319755239 0 -1 0
157 31 5 -0.241 9.02503485151098 37.11049872865835 5.640967992435616 0 -1 0
158 31 5 -0.241 9.664568201159527 37.99752613165364 5.373907167864303 0 -1 0
259 52 3 0 10.969141067123743 35.01553297759184 1.511077950018328 0 -1 0
260 52 4 0.241 11.164119151122941 34.330102833840776 0.8802163152382128 0 -1 0
261 52 4 0.241 11.236175042552924 34.68977975452665 2.360495127286718 0 -1 0
262 52 5 -0.241 10.907901807194264 35.32390444350402 0.8560229704408355 0 -1 0
263 52 5 -0.241 10.910579755920654 35.46421313563939 1.9445297949768003 0 -1 0
219 44 3 0 15.478220388067557 37.844212971132514 3.8082587335158533 0 -1 0
220 44 4 0.241 16.178091353931595 38.05621896246085 4.439846019073494 0 -1 0
221 44 4 0.241 15.959893829472703 37.1736715635306 3.254313353325072 0 -1 0
222 44 5 -0.241 15.162569676311197 38.3553424851448 4.250765559256827 0 -1 0
223 44 5 -0.241 14.985072913443261 37.64136714761382 3.3470543205309347 0 -1 0
159 32 3 0 32.251602545832256 39.16389244912333 5.733298212080146 -1 -1 0
160 32 4 0.241 32.87154430585254 39.959283004910105 5.292631016991245 -1 -1 0
161 32 4 0.241 33.038022311171574 38.58295521208038 6.0704963624764074 -1 -1 0
162 32 5 -0.241 31.72802600467697 39.468785946135675 5.431053823543549 -1 -1 0
163 32 5 -0.241 31.827135992335165 38.55691233557068 5.979749386944846 -1 -1 0
224 45 3 0 32.61886563232769 37.02416786329659 2.9602217943741995 -1 -1 0
225 45 4 0.241 32.23092919950727 37.95688594915059 3.007909275004791 -1 -1 0
226 45 4 0.241 32.164410293074866 36.572412128051766 3.7201255731745797 -1 -1 0
227 45 5 -0.241 32.94575895388673 37.327365507881254 2.4878997728336394 -1 -1 0
228 45 5 -0.241 32.87135370064143 36.33561040128259 2.9424840275072124 -1 -1 0
266 53 4 0.241 29.976139153321025 39.667917936218096 1.3618214406660336 -1 -1 0
268 53 5 -0.241 30.846390667913173 39.738608527131504 0.8424252501857702 -1 -1 0
144 29 3 0 39.11784133335578 35.49880008477277 5.007590500996114 -1 -1 0
145 29 4 0.241 39.544226470883366 34.95077543390985 5.168633828411477 -1 -1 0
146 29 4 0.241 38.2283001833467 35.07027218143559 4.798893787889349 -1 -1 0
147 29 5 -0.241 39.868379796182374 35.753964006762125 5.190794096327496 -1 -1 0
148 29 5 -0.241 38.57406679707577 35.971857741776155 4.92933281095105 -1 -1 0
249 50 3 0 38.49838547122358 36.275974801731294 1.791946133626878 -1 -1 0
250 50 4 0.241 37.74784301224832 35.95834759115698 1.3228980858289838 -1 -1 0
251 50 4 0.241 38.23766158581599 37.1792177244189 2.006031168113112 -1 -1 0
252 50 5 -0.241 38.62587462603041 35.539849870923426 1.6729032141497797 -1 -1 0
253 50 5 -0.241 39.031319114596855 36.49932215730312 2.1063045971532746 -1 -1 0
9 2 3 0 2.491253619913891 1.7294833111978132 8.247898085922008 0 0 0
10 2 4 0.241 3.041392143971038 1.4183035206143184 7.261359306408911 0 0 0
11 2 4 0.241 3.113670390849007 0.5064537574735606 8.59894822974347 0 0 0
12 2 5 -0.241 2.048044683762106 2.2948554286637717 8.048682092805233 0 0 0
13 2 5 -0.241 2.48927784865483 1.8068957083673518 9.071237134203317 0 0 0
49 10 3 0 5.305912611647105 0.30129290239220186 7.256411940701424 0 0 0
51 10 4 0.241 5.041734742534213 0.6216441691138881 8.02132120222599 0 0 0
53 10 5 -0.241 4.2927555780599835 0.8994569909160555 7.1870477462825875 0 0 0
59 12 3 0 3.469617941908738 5.567443468474635 7.228521384528227 0 0 0
61 12 4 0.241 3.3354271988469413 4.80381953240146 7.86617145137477 0 0 0
62 12 5 -0.241 3.459121016982433 6.011596833709678 6.750513671124782 0 0 0
63 12 5 -0.241 3.841113554774955 5.735313259583178 7.861056607846766 0 0 0
74 15 3 0 10.527210970976586 3.591403336201592 11.352468021702721 0 0 0
75 15 4 0.241 10.593263305502807 3.241035090231645 10.469065938731795 0 0 0
76 15 4 0.241 10.439063803908672 2.9053481121978364 11.948244918580912 0 0 0
77 15 5 -0.241 10.60304850381981 4.021073967057876 10.944528273779424 0 0 0
78 15 5 -0.241 10.45232461691245 3.8271319675031674 12.03662547009445 0 0 0
139 28 3 0 12.03895072179194 6.438826782418131 7.730821587884094 0 0 0
140 28 4 0.241 12.374971018962514 6.017773048015622 7.028577031373397 0 0 0
142 28 5 -0.241 11.80142394485446 5.831118303257374 7.553708457276142 0 0 0
118 23 5 -0.241 14.849910462739148 0.3480149233974996 10.553552163464632 0 0 0
94 19 3 0 28.44869517476174 1.089419164460015 12.922304457266014 -1 0 0
96 19 4 0.241 29.105584308186383 1.5435672394620135 12.302728959652995 -1 0 0
98 19 5 -0.241 28.015236512517546 1.4530158426334945 12.493703639422893 -1 0 0
134 27 3 0 30.948085331327615 5.044369080276785 7.926589150948193 -1 0 0
135 27 4 0.241 30.708821416545252 5.764436126992979 7.385910036440419 -1 0 0
136 27 4 0.241 31.321970137856898 5.431960199107868 8.774488764299491 -1 0 0
137 27 5 -0.241 30.673674959633242 4.82422207931356 7.399891733959394 -1 0 0
138 27 5 -0.241 31.096173826407988 4.4964245602534625 8.376478241930654 -1 0 0
46 9 4 0.241 39.024159867382394 6.418238548213257 12.05064202911583 -1 0 0
84 17 3 0 0.32525687334282527 11.695691380716488 11.307931413549841 0 0 0
85 17 4 0.241 0.8262460189066735 10.940024999102612 11.58061952235365 0 0 0
86 17 4 0.241 39.98564921353626 12.092858718825994 12.055264781089535 -1 0 0
87 17 5 -0.241 0.6510023168780573 11.414755543433003 10.769863680378114 0 0 0
125 25 4 0.241 2.5379697752095067 9.253876914117313 7.089244625821377 0 0 0
127 25 5 -0.241 3.3815665178959518 9.02453919016123 6.987815360297393 0 0 0
99 20 3 0 11.458919215237994 11.410729496570827 12.877930168807575 0 0 0
100 20 4 0.241 12.138613034500937 12.057317952111664 12.837018542490519 0 0 0
101 20 4 0.241 10.69341759849026 11.779652080892404 12.489548589810362 0 0 0
102 20 5 -0.241 12.044212145222255 11.17397251766418 13.155655279562446 0 0 0
103 20 5 -0.241 10.950545402118196 10.97974032994352 12.883169614631333 0 0 0
141 28 4 0.241 12.4557328275744 7.2600175168925025 7.991554060610342 0 0 0
143 28 5 -0.241 11.815619295474608 6.7677090790825565 8.184396777990578 0 0 0
165 33 4 0.241 8.168430329712463 11.372066323911492 7.333462059164622 0 0 0
166 33 4 0.241 9.206313896845785 12.372691140915661 6.726000642309206 0 0 0
72 14 5 -0.241 32.272391334698106 6.850398038947794 13.095867554641721 -1 0 0
44 9 3 0 38.660488519754956 7.3692427747332765 12.048025429397141 -1 0 0
45 9 4 0.241 38.52984892636455 7.615069621469816 12.869322797098961 -1 0 0
47 9 5 -0.241 38.40033580210584 8.051815665532978 12.112490421667397 -1 0 0
48 9 5 -0.241 38.764421351439935 7.171097800432793 11.502553182649285 -1 0 0
88 17 5 -0.241 39.9725104760518 12.273492167226797 11.17159040852337 -1 0 0
112 22 5 -0.241 37.92533235893234 6.750293543013791 6.729514828646418 -1 0 0
149 30 3 0 37.77974168452737 12.355544570884252 7.065827094018298 -1 0 0
150 30 4 0.241 37.16601051544334 13.081157576640408 6.751489704911557 -1 0 0
152 30 5 -0.241 37.8295258955478 12.888492537057754 7.424194565708 -1 0 0
153 30 5 -0.241 38.20659860141869 11.806698865168864 7.178048971497636 -1 0 0
105 21 4 0.241 0.5098093873288511 32.978611386834025 8.294467205460606 0 -1 0
107 21 5 -0.241 1.2405289338165715 32.99728352241691 7.389197960025693 0 -1 0
129 26 3 0 6.474896632473614 33.17808175633876 7.41051457073129 0 -1 0
132 26 5 -0.241 6.345259840225227 33.23532964899194 6.855579593000952 0 -1 0
90 18 4 0.241 11.997561330966185 32.833612283586945 12.705251713122971 0 -1 0
92 18 5 -0.241 11.1651861244854 32.82077164987691 13.169865845844974 0 -1 0
130 26 4 0.241 7.047892427944847 32.69459525744258 6.811212017117319 0 -1 0
131 26 4 0.241 6.767054501356694 33.09883809807143 8.269915199212324 0 -1 0
186 37 4 0.241 31.40528077701187 29.52382671346188 7.0926485790021205 -1 -1 0
24 5 3 0 3.5792439117216652 39.00767559921582 9.782644677786859 0 -1 0
25 5 4 0.241 4.134474406852284 38.37179640661953 9.985021970999876 0 -1 0
26 5 4 0.241 3.311751185029875 39.615868365341505 10.693685189279266 0 -1 0
27 5 5 -0.241 3.8258203585051658 38.83049164132862 9.034479617534023 0 -1 0
28 5 5 -0.241 3.467598422906537 39.860414820350925 9.221968320524468 0 -1 0
39 8 3 0 0.5585573611656016 37.645159432127045 8.89556410984132 0 -1 0
40 8 4 0.241 1.8777002792487414 38.19270455426189 7.457567940099851 0 -1 0
41 8 4 0.241 0.3662839317075475 37.15162343978683 8.50771664035128 0 -1 0
42 8 5 -0.241 0.6387165364423321 38.07574029275004 9.291853875027567 0 -1 0
43 8 5 -0.241 0.1387436184307755 37.146768386127036 9.46433406585641 0 -1 0
50 10 4 0.241 6.038338223619502 39.96414817538755 7.607027960944015 0 -1 0
52 10 5 -0.241 5.4916923846969095 0.004204536616491339 6.8535363962224 0 0 0
66 13 4 0.241 3.4309011225863077 37.38717384250133 6.895987022728884 0 -1 0
68 13 5 -0.241 1.877700279248741 38.19270455426189 7.457567940099851 0 -1 0
104 21 3 0 1.2583648011217743 33.543145856944555 7.861186265943569 0 -1 0
106 21 4 0.241 1.1290784738869255 34.33448877901996 8.546559112554611 0 -1 0
108 21 5 -0.241 1.7506793768592575 34.005205551498534 7.476639259446367 0 -1 0
133 26 5 -0.241 6.065318281198607 33.55781735536457 7.894620751139909 0 -1 0
114 23 3 0 15.046551902524458 39.83065224536817 11.022793306691527 0 -1 0
115 23 4 0.241 15.334382865472483 39.10895909323689 11.614415062642964 0 -1 0
116 23 4 0.241 15.793642341236522 39.938097762443974 10.443074766684113 0 -1 0
117 23 5 -0.241 14.505780179520452 39.71801419793921 11.448110462143537 0 -1 0
119 24 3 0 31.472572698923084 34.56104019286676 9.78989167552484 -1 -1 0
120 24 4 0.241 30.6462152624799 35.126110617582185 9.746299858955458 -1 -1 0
121 24 4 0.241 31.075311838107964 33.68254564266521 9.490999399138202 -1 -1 0
122 24 5 -0.241 31.75779841073051 35.20279464873998 9.9807201519331 -1 -1 0
123 24 5 -0.241 32.11776629307781 34.131910864174955 9.809709936536398 -1 -1 0
54 11 3 0 35.343534011210835 39.03115970930057 11.034769059222961 -1 -1 0
55 11 4 0.241 35.14096076849494 38.51116998322821 10.33274843715582 -1 -1 0
56 11 4 0.241 34.70527745180558 38.848750631264096 11.688385708793142 -1 -1 0
57 11 5 -0.241 35.7675355122523 39.164622207008264 10.509167347749786 -1 -1 0
58 11 5 -0.241 35.45362929643357 39.424344697181425 11.59613807586605 -1 -1 0
79 16 3 0 36.46125606332966 34.28520820246395 10.696747733489667 -1 -1 0
80 16 4 0.241 35.50397741483565 34.37035925048904 10.291256338927255 -1 -1 0
81 16 4 0.241 36.76587265719827 33.528470132832226 10.393154835922752 -1 -1 0
82 16 5 -0.241 36.1861959573752 34.822901588204616 10.920737538521555 -1 -1 0
83 16 5 -0.241 37.142630573128805 34.12928952908217 10.944790216894102 -1 -1 0
21 4 4 0.241 1.8570486999936295 6.274649760356448 18.667338143570788 0 0 0
34 7 3 0 8.156961126891819 5.783674080611987 16.723499297250523 0 0 0
35 7 4 0.241 7.211036760392206 5.811043686910896 16.550456131687454 0 0 0
36 7 4 0.241 8.504615548590712 5.073047706042635 16.20331385178836 0 0 0
37 7 5 -0.241 7.893715475421524 6.3027400484381495 17.09285895057177 0 0 0
38 7 5 -0.241 8.847446968483197 5.736706700890093 16.859901444331815 0 0 0
95 19 4 0.241 29.048763416815863 0.5908757172987199 13.494132062207951 -1 0 0
97 19 5 -0.241 27.986166318025838 0.7412614405259181 13.379093318104433 -1 0 0
29 6 3 0 35.17637601289564 2.7768121139414017 16.026611302792823 -1 0 0
30 6 4 0.241 35.22358745357585 2.5951572401428815 16.970927486409035 -1 0 0
31 6 4 0.241 35.600353650717224 3.530905675385277 15.854097348483483 -1 0 0
32 6 5 -0.241 34.84885859930401 2.2372648777429758 16.189252952700965 -1 0 0
33 6 5 -0.241 35.13113044229702 2.9755962366623185 15.361501723383585 -1 0 0
19 4 3 0 2.1199525567046296 7.162495545819434 18.518315778891584 0 0 0
20 4 4 0.241 1.351911658100967 7.704255819256388 18.679309189586075 0 0 0
22 4 5 -0.241 2.2725512416548033 7.813209648910704 18.406835540095106 0 0 0
23 4 5 -0.241 2.6611521734619656 6.735451214318254 18.402709931888914 0 0 0
69 14 3 0 32.36551207365638 7.004120454097374 13.783018106407392 -1 0 0
70 14 4 0.241 33.23297816461741 6.7089329804016975 13.452420384969331 -1 0 0
71 14 4 0.241 32.490701716776655 7.217321045637683 14.68961485559582 -1 0 0
73 14 5 -0.241 31.745456145857272 7.222399941020143 14.036484104054269 -1 0 0
89 18 3 0 11.695879572172148 33.15443915068502 13.509766903278772 0 -1 0
91 18 4 0.241 12.444690384831743 33.61216331937604 13.919732979969746 0 -1 0
93 18 5 -0.241 11.505319082455493 33.4004722914465 14.097098197873924 0 -1 0
14 3 3 0 38.504502499673016 38.76947620457686 18.562868598073983 -1 -1 0
15 3 4 0.241 38.580632227998755 39.63117719811687 18.821821411509653 -1 -1 0
16 3 4 0.241 39.08245471377465 38.26620458455722 19.147401963894808 -1 -1 0
17 3 5 -0.241 38.09444542636053 39.1856199759726 18.177897282345285 -1 -1 0
18 3 5 -0.241 38.477285048761715 38.114540818479036 18.41173791043795 -1 -1 0
479 96 3 0 6.027068207101507 4.6279863732302635 31.259924816099232 0 0 -1
480 96 4 0.241 6.4593184381647655 5.0528232351869145 30.594160606630904 0 0 -1
481 96 4 0.241 5.012214551807909 4.572258826665143 30.76979069834205 0 0 -1
483 96 5 -0.241 5.74102278650189 4.310732275537509 31.69134247426143 0 0 -1
491 98 4 0.241 0.3142195354593053 4.660555253068369 31.224521392697987 0 0 -1
503 100 5 -0.241 39.76514267129437 1.0528951324252402 32.763990426569634 -1 0 -1
504 101 3 0 2.385385223956932 3.3885715131761716 28.27689225595272 0 0 -1
505 101 4 0.241 2.1728046517856936 2.6067078452938923 29.015792854421484 0 0 -1
506 101 4 0.241 1.7095488374930372 3.0010361475259755 27.598265702937887 0 0 -1
507 101 5 -0.241 2.932405561672971 3.7288003459958747 28.816237244713374 0 0 -1
508 101 5 -0.241 2.5282978565746377 3.9221554758340726 27.764386260129754 0 0 -1
454 91 3 0 10.731857697943205 1.9217852031757154 29.90746075251984 0 0 -1
455 91 4 0.241 9.922466080217589 2.38370749602689 30.082787018980614 0 0 -1
456 91 4 0.241 11.01167616622152 1.573787326286844 30.751866496933527 0 0 -1
457 91 5 -0.241 10.499184185939828 2.19108831980795 29.278815911399878 0 0 -1
458 91 5 -0.241 11.305768819876084 1.5790764913267716 29.804813986645833 0 0 -1
482 96 5 -0.241 6.819869627676631 4.670655477130344 31.554764331545396 0 0 -1
474 95 3 0 36.95386662355299 2.389660890128621 33.290257370049936 -1 0 -1
475 95 4 0.241 38.056991134591996 1.219296052833349 32.895304410574305 -1 0 -1
477 95 5 -0.241 37.309417166909974 3.117155278321913 33.40487888430907 -1 0 -1
489 98 3 0 39.647137113738204 5.149751821472834 31.417959594905977 -1 0 -1
490 98 4 0.241 39.53274399287657 5.9182796940902325 30.93310478615541 -1 0 -1
492 98 5 -0.241 39.222256836729194 5.528675430739092 31.440422135563054 -1 0 -1
493 98 5 -0.241 39.819632769823365 4.624170233298164 31.69539975404266 -1 0 -1
441 88 4 0.241 6.391743823527135 8.922108261145686 31.42979693137859 0 0 -1
464 93 3 0 2.147309004626839 10.776696942008186 28.00771940414203 0 0 -1
465 93 4 0.241 2.5427649999841324 10.139083269061723 27.47792201807749 0 0 -1
466 93 4 0.241 2.100138184713705 10.429025353459195 28.92378693039535 0 0 -1
467 93 5 -0.241 2.1846553876505617 11.012938996020017 27.325728681084875 0 0 -1
468 93 5 -0.241 1.864912325361652 11.21992210292922 28.38878428372663 0 0 -1
439 88 3 0 7.201202256474093 9.389511299018098 31.433186988318926 0 0 -1
440 88 4 0.241 7.662985863948797 9.231318220040253 30.60538649596054 0 0 -1
442 88 5 -0.241 7.797914115821096 9.723706638884513 31.426252672204257 0 0 -1
443 88 5 -0.241 6.8735699815555575 9.483537913852512 32.03193226738151 0 0 -1
375 75 4 0.241 13.556222045775536 12.698012712255878 32.802170412291126 0 0 -1
377 75 5 -0.241 13.688823494886273 11.698086064561592 32.97533044187005 0 0 -1
379 76 3 0 0.18924381362088666 26.832614559973234 33.27512627368754 0 -1 -1
383 76 5 -0.241 0.8792774178156687 26.673341743180607 33.080463256835934 0 -1 -1
382 76 5 -0.241 39.853720963993894 27.08314924552949 32.75529499884943 -1 -1 -1
419 84 3 0 37.05389165488392 32.10387541481729 32.587805615216865 -1 -1 -1
420 84 4 0.241 36.55905672775231 32.66084159191331 32.09819338384337 -1 -1 -1
422 84 5 -0.241 37.24817739770807 32.1754577181414 31.96369894160998 -1 -1 -1
423 84 5 -0.241 37.37864306847304 31.666894580810194 33.005939619664204 -1 -1 -1
469 94 3 0 6.246081346984008 36.001692568921676 29.89776204170164 0 -1 -1
472 94 5 -0.241 5.82779324366338 36.5319326596411 29.643368852938174 0 -1 -1
473 94 5 -0.241 5.8404129316285225 35.39861143005575 29.901611931340426 0 -1 -1
484 97 3 0 0.7358853193320083 37.7400011360225 32.926483393962805 0 -1 -1
486 97 4 0.241 1.720447602103095 37.49066555773637 33.4836127713145 0 -1 -1
487 97 5 -0.241 39.97669787505746 37.672843424463565 32.686609988537256 -1 -1 -1
488 97 5 -0.241 1.0632878260418057 38.14386710366566 32.34328819823698 0 -1 -1
432 86 5 -0.241 9.119216396198325 36.75614254086522 32.82808390651416 0 -1 -1
433 86 5 -0.241 8.974551724371358 37.85585647512452 33.09600291295992 0 -1 -1
470 94 4 0.241 6.874837970791237 36.78605408759536 29.91544300052768 0 -1 -1
471 94 4 0.241 6.843369466531259 35.34290343351563 30.215768782483156 0 -1 -1
392 78 5 -0.241 14.856701393191916 39.68294529284753 33.016279725959066 0 -1 -1
393 78 5 -0.241 14.74473101769992 38.5611886627416 33.186479843559596 0 -1 -1
459 92 3 0 36.148243409720415 36.27067095983665 31.04222848269073 -1 -1 -1
460 92 4 0.241 35.71406111894904 35.583003836716365 30.78769671944508 -1 -1 -1
461 92 4 0.241 37.16695891275535 36.12270669208368 31.195463613621 -1 -1 -1
462 92 5 -0.241 35.441839850868554 36.34903530469369 30.913168371357443 -1 -1 -1
463 92 5 -0.241 36.42078658636578 36.75419467773492 31.176924658507776 -1 -1 -1
494 99 3 0 3.9463565579966358 0.8665300832769398 34.166695425197595 0 0 -1
495 99 4 0.241 4.852876946003967 0.784168559925493 34.593257612500615 0 0 -1
496 99 4 0.241 3.9620704607478774 0.03305347218064559 33.63874075756866 0 0 -1
497 99 5 -0.241 3.995314101654381 1.3890055179846919 34.51458303235876 0 0 -1
498 99 5 -0.241 3.1447461368019187 0.8652268140858289 33.83747648807209 0 0 -1
501 100 4 0.241 0.8819177984687907 0.6968323432858884 33.399825837783844 0 0 -1
414 83 3 0 9.50641381610882 4.795606388034496 34.74432374100443 0 0 -1
415 83 4 0.241 9.354744291094878 5.762913324958787 34.52102038482833 0 0 -1
416 83 4 0.241 9.807130293091605 4.5142553225827085 33.92173246739502 0 0 -1
417 83 5 -0.241 9.302431003121042 5.049864862201778 35.38206393513127 0 0 -1
418 83 5 -0.241 9.65873543350496 4.0444667106059375 34.88246373990097 0 0 -1
285 57 4 0.241 14.689941488481365 1.791674848398148 39.88281811917235 0 0 -1
287 57 5 -0.241 15.449697598254037 1.009235469474408 39.43653378490966 0 0 -1
349 70 3 0 17.25467983013301 4.2394366008993405 35.32752565336878 0 0 -1
350 70 4 0.241 17.740052252486727 3.4867492131273337 34.96817510118677 0 0 -1
351 70 4 0.241 17.542487671274085 4.304488907212447 36.24645197667733 0 0 -1
352 70 5 -0.241 17.053057868773735 4.165242325935371 34.666996970310585 0 0 -1
353 70 5 -0.241 16.904817742518684 4.76835770182103 35.61054576646047 0 0 -1
390 78 4 0.241 14.348718446990736 0.08845423071258626 33.754432798015266 0 0 -1
304 61 3 0 29.243651807625625 4.4888334131867955 39.17822675217535 -1 0 -1
305 61 4 0.241 28.34225073125481 4.614620846052021 39.63140806438545 -1 0 -1
306 61 4 0.241 29.084941449511604 5.269497935467424 38.46886395706354 -1 0 -1
307 61 5 -0.241 29.3106579742806 3.956516391817238 39.680350482335356 -1 0 -1
308 61 5 -0.241 29.926095207228375 4.428179942686982 38.83696891374085 -1 0 -1
369 74 3 0 32.93271432613354 1.7250276757162262 37.25042936999716 -1 0 -1
370 74 4 0.241 31.98785515269571 1.2777110221578958 37.40188313864853 -1 0 -1
371 74 4 0.241 32.83415218698034 2.3633360624919613 38.07269952265126 -1 0 -1
372 74 5 -0.241 33.2798551987239 1.1895682658616487 36.68712885789594 -1 0 -1
373 74 5 -0.241 33.72082260982112 1.7697791948064392 37.012637183450714 -1 0 -1
409 82 3 0 36.68957838083453 3.4800664053125967 37.5523634998773 -1 0 -1
410 82 4 0.241 36.62271629388449 4.2306551954243865 38.11034180307845 -1 0 -1
411 82 4 0.241 37.710061967205796 3.686216954109884 37.301620746700856 -1 0 -1
412 82 5 -0.241 35.94579259645141 3.3892896691771104 37.818244032104886 -1 0 -1
413 82 5 -0.241 36.7572864168475 2.8299432177914494 37.14794878466785 -1 0 -1
434 87 3 0 35.34945567332036 0.2982192986248062 35.222399956359396 -1 0 -1
435 87 4 0.241 34.4150890967666 1.2465313237255085 36.4089241192924 -1 0 -1
436 87 4 0.241 36.21100971197409 0.5386116736635189 35.54635658578836 -1 0 -1
437 87 5 -0.241 34.953157124192984 0.24817787343763195 34.749415712590555 -1 0 -1
438 87 5 -0.241 35.818167969372595 0.2126938976031866 34.32698809027027 -1 0 -1